<?xml version="1.0" encoding="UTF-8" ?>
<psml version="1.1" energy_unit="hartree" length_unit="bohr"
 uuid="d8c81a40-159f-11ee-7ea3-f7e07fb497ef"
 xmlns="http://esl.cecam.org/PSML/ns/1.1">
<provenance creator="ONCVPSP-3.3.1+psml-3.3.1-75 (scalar-relativistic)"
 date="2023-06-28">
<annotation action="semilocal-pseudopotential-generation"
 action-cont="projectors-generation" />
<input-file name="oncvpsp-input">
<![CDATA[# ATOM AND REFERENCE CONFIGURATION
# atsym  z   nc   nv     iexc    psfile
  S 16.00    3    2       3      upf
#
#   n    l    f        energy (Ha)
    1    0    2.00
    2    0    2.00
    2    1    6.00
    3    0    2.00
    3    1    4.00
#
# PSEUDOPOTENTIAL AND OPTIMIZATION
# lmax
    1
#
#   l,   rc,      ep,       ncon, nbas, qcut
    0   2.12945  -0.63518    5    8   6.75573
    1   1.52480  -0.26136    5    8   8.63513
#
# LOCAL POTENTIAL
# lloc, lpopt,  rc(5),   dvloc0
    4    5   0.95758      0.00000
#
# VANDERBILT-KLEINMAN-BYLANDER PROJECTORs
# l, nproj, debl
    0    2   1.22534
    1    2   1.65602
#
# MODEL CORE CHARGE
# icmod, fcfact, rcfact
    0   0.00000   0.00000
#
# LOG DERIVATIVE ANALYSIS
# epsh1, epsh2, depsh
   -5.00    3.00    0.02
#
# OUTPUT GRID
# rlmax, drl
    6.00    0.01
#
# TEST CONFIGURATIONS
# ncnf
    0
# nvcnf
#   n    l    f
]]>
</input-file>
</provenance>
<pseudo-atom-spec atomic-label="S" atomic-number="16" z-pseudo="6"
 flavor="Hamann&apos;s oncvpsp" relativity="scalar" spin-dft="no"
 core-corrections="no">
<annotation pseudo-energy="-10.0781669099" cutoff_hint_low="17"
 cutoff_hint_normal="28" cutoff_hint_high="32" />
<exchange-correlation>
<annotation oncvpsp-xc-code="3"
 oncvpsp-xc-type="LDA -- Ceperley-Alder Perdew-Zunger" />
<libxc-info number-of-functionals="2">
<functional name="Slater exchange (LDA)" type="exchange" id="1" />
<functional name="Perdew &amp; Zunger (LDA)" type="correlation" id="9" />
</libxc-info>
</exchange-correlation>
<valence-configuration total-valence-charge="6">
<shell n="3" l="s" occupation="2" />
<shell n="3" l="p" occupation="4" />
</valence-configuration>
</pseudo-atom-spec>
<grid npts="457">
<annotation type="sampled from oncvpsp log grid"
 recipe="r(i:1..N) = r1*exp(a*(i-1)) + r=0; resampled"
 recipe-cont="r1: scale; a: step" scale="0.312500000000E-04"
 step="0.119285708653E-01" delta="0.500000000000E-02" rmax="44.0674949757" />
<grid-data>
  0.000000000000E+00  5.032089401363E-03  1.005120367503E-02  1.507840828192E-02
  2.031740843734E-02  2.548578698111E-02  3.084510470868E-02  3.601910451176E-02
  4.106941804742E-02  4.627257563705E-02  5.151672975532E-02  5.667511193686E-02
  6.235000413091E-02  6.777976739691E-02  7.280867859944E-02  7.821070922764E-02
  8.401354282973E-02  8.917679538664E-02  9.465736793826E-02  1.004747621413E-01
  1.066496781734E-01  1.118617474217E-01  1.173285353557E-01  1.230624903151E-01
  1.290766690016E-01  1.353847662102E-01  1.420011460131E-01  1.471747771426E-01
  1.525369029415E-01  1.580943909733E-01  1.638543590123E-01  1.698241841602E-01
  1.760115122937E-01  1.824242678575E-01  1.890706640132E-01  1.959592131586E-01
  2.030987378299E-01  2.104983820012E-01  2.155806549362E-01  2.207856342690E-01
  2.261162826228E-01  2.315756341504E-01  2.371667962613E-01  2.428929513903E-01
  2.487573588086E-01  2.547633564797E-01  2.609143629586E-01  2.672138793378E-01
  2.736654912406E-01  2.802728708611E-01  2.870397790552E-01  2.939700674807E-01
  3.010676807899E-01  3.083366588749E-01  3.157811391668E-01  3.234053589908E-01
  3.312136579783E-01  3.392104805365E-01  3.474003783786E-01  3.557880131142E-01
  3.643781589028E-01  3.731757051713E-01  3.821856593970E-01  3.914131499575E-01
  4.008634290501E-01  4.105418756810E-01  4.204539987275E-01  4.254994467122E-01
  4.306054400728E-01  4.357727053536E-01  4.410019778179E-01  4.462940015517E-01
  4.516495295703E-01  4.570693239252E-01  4.625541558123E-01  4.681048056820E-01
  4.737220633502E-01  4.794067281104E-01  4.851596088477E-01  4.909815241539E-01
  4.968733024437E-01  5.028357820731E-01  5.088698114579E-01  5.149762491954E-01
  5.211559641858E-01  5.274098357560E-01  5.337387537851E-01  5.401436188305E-01
  5.466253422565E-01  5.531848463636E-01  5.598230645199E-01  5.665409412942E-01
  5.733394325897E-01  5.802195057808E-01  5.871821398501E-01  5.942283255283E-01
  6.013590654347E-01  6.085753742199E-01  6.158782787105E-01  6.232688180550E-01
  6.307480438717E-01  6.383170203982E-01  6.459768246429E-01  6.537285465387E-01
  6.615732890971E-01  6.695121685663E-01  6.775463145891E-01  6.856768703642E-01
  6.939049928085E-01  7.022318527222E-01  7.106586349549E-01  7.191865385744E-01
  7.278167770372E-01  7.365505783617E-01  7.453891853020E-01  7.543338555257E-01
  7.633858617920E-01  7.725464921335E-01  7.818170500391E-01  7.911988546395E-01
  8.006932408952E-01  8.103015597860E-01  8.200251785034E-01  8.298654806454E-01
  8.398238664132E-01  8.499017528101E-01  8.601005738439E-01  8.704217807300E-01
  8.808668420987E-01  8.914372442039E-01  9.021344911344E-01  9.129601050280E-01
  9.239156262883E-01  9.350026138038E-01  9.462226451694E-01  9.575773169115E-01
  9.690682447144E-01  9.806970636510E-01  9.924654284148E-01  1.004375013556E+00
  1.016427513718E+00  1.028624643883E+00  1.040968139610E+00  1.053459757285E+00
  1.066101274372E+00  1.078894489665E+00  1.091841223541E+00  1.104943318223E+00
  1.118202638042E+00  1.131621069699E+00  1.145200522535E+00  1.158942928805E+00
  1.172850243951E+00  1.186924446878E+00  1.201167540241E+00  1.215581550724E+00
  1.230168529332E+00  1.244930551684E+00  1.259869718305E+00  1.274988154924E+00
  1.290288012783E+00  1.305771468937E+00  1.321440726564E+00  1.337298015283E+00
  1.353345591466E+00  1.369585738564E+00  1.386020767427E+00  1.402653016636E+00
  1.419484852835E+00  1.436518671069E+00  1.453756895122E+00  1.471201977864E+00
  1.488856401598E+00  1.506722678417E+00  1.524803350558E+00  1.543100990765E+00
  1.561618202654E+00  1.580357621086E+00  1.599321912539E+00  1.618513775489E+00
  1.637935940795E+00  1.657591172085E+00  1.677482266150E+00  1.697612053344E+00
  1.717983397984E+00  1.738599198760E+00  1.759462389145E+00  1.780575937814E+00
  1.801942849068E+00  1.823566163257E+00  1.845448957216E+00  1.867594344703E+00
  1.890005476839E+00  1.912685542561E+00  1.935637769072E+00  1.958865422301E+00
  1.982371807368E+00  2.006160269057E+00  2.030234192286E+00  2.054597002593E+00
  2.079252166624E+00  2.104203192624E+00  2.129453630935E+00  2.155007074506E+00
  2.180867159400E+00  2.207037565313E+00  2.233522016097E+00  2.260324280290E+00
  2.287448171654E+00  2.314897549713E+00  2.342676320310E+00  2.370788436154E+00
  2.399237897388E+00  2.428028752156E+00  2.457165097182E+00  2.486651078348E+00
  2.516490891288E+00  2.546688781984E+00  2.577249047368E+00  2.608176035936E+00
  2.639474148367E+00  2.671147838148E+00  2.703201612206E+00  2.735640031552E+00
  2.768467711931E+00  2.801689324474E+00  2.835309596367E+00  2.869333311524E+00
  2.903765311262E+00  2.938610494997E+00  2.973873820937E+00  3.009560306789E+00
  3.045675030470E+00  3.082223130836E+00  3.119209808406E+00  3.156640326107E+00
  3.194520010020E+00  3.232854250140E+00  3.271648501142E+00  3.310908283155E+00
  3.350639182553E+00  3.390846852744E+00  3.431537014977E+00  3.472715459157E+00
  3.514388044666E+00  3.556560701202E+00  3.599239429617E+00  3.642430302772E+00
  3.686139466406E+00  3.730373140002E+00  3.775137617682E+00  3.820439269095E+00
  3.866284540324E+00  3.912679954808E+00  3.959632114265E+00  4.007147699637E+00
  4.055233472032E+00  4.103896273697E+00  4.153143028981E+00  4.202980745329E+00
  4.253416514273E+00  4.304457512444E+00  4.356111002593E+00  4.408384334624E+00
  4.461284946640E+00  4.514820366000E+00  4.568998210392E+00  4.623826188916E+00
  4.679312103183E+00  4.735463848421E+00  4.792289414603E+00  4.849796887578E+00
  4.907994450229E+00  4.966890383631E+00  5.026493068235E+00  5.086810985054E+00
  5.147852716874E+00  5.209626949477E+00  5.272142472871E+00  5.335408182545E+00
  5.399433080736E+00  5.464226277704E+00  5.529796993037E+00  5.596154556953E+00
  5.663308411637E+00  5.731268112576E+00  5.800043329927E+00  5.869643849887E+00
  5.940079576085E+00  6.011360530998E+00  6.083496857370E+00  6.156498819659E+00
  6.230376805494E+00  6.305141327160E+00  6.380803023086E+00  6.457372659363E+00
  6.534861131276E+00  6.613279464851E+00  6.692638818429E+00  6.772950484250E+00
  6.854225890061E+00  6.936476600742E+00  7.019714319951E+00  7.103950891790E+00
  7.189198302492E+00  7.275468682122E+00  7.362774306307E+00  7.451127597983E+00
  7.540541129159E+00  7.631027622709E+00  7.722599954181E+00  7.815271153631E+00
  7.909054407475E+00  8.003963060365E+00  8.100010617089E+00  8.197210744494E+00
  8.295577273428E+00  8.395124200709E+00  8.495865691118E+00  8.597816079411E+00
  8.700989872364E+00  8.805401750832E+00  8.911066571842E+00  9.017999370705E+00
  9.126215363153E+00  9.235729947511E+00  9.346558706881E+00  9.458717411364E+00
  9.572222020300E+00  9.687088684543E+00  9.803333748758E+00  9.920973753743E+00
  1.004002543879E+01  1.016050574405E+01  1.028243181298E+01  1.040582099474E+01
  1.053069084667E+01  1.065705913683E+01  1.078494384648E+01  1.091436317263E+01
  1.104533553071E+01  1.117787955707E+01  1.131201411176E+01  1.144775828110E+01
  1.158513138047E+01  1.172415295704E+01  1.186484279252E+01  1.200722090603E+01
  1.215130755691E+01  1.229712324759E+01  1.244468872656E+01  1.259402499128E+01
  1.274515329117E+01  1.289809513067E+01  1.305287227224E+01  1.320950673950E+01
  1.336802082038E+01  1.352843707022E+01  1.369077831507E+01  1.385506765485E+01
  1.402132846670E+01  1.418958440830E+01  1.435985942120E+01  1.453217773426E+01
  1.470656386707E+01  1.488304263347E+01  1.506163914508E+01  1.524237881482E+01
  1.542528736059E+01  1.561039080892E+01  1.579771549863E+01  1.598728808461E+01
  1.617913554163E+01  1.637328516813E+01  1.656976459015E+01  1.676860176523E+01
  1.696982498641E+01  1.717346288625E+01  1.737954444088E+01  1.758809897417E+01
  1.779915616186E+01  1.801274603580E+01  1.822889898823E+01  1.844764577609E+01
  1.866901752541E+01  1.889304573571E+01  1.911976228454E+01  1.934919943195E+01
  1.958138982514E+01  1.981636650304E+01  2.005416290108E+01  2.029481285589E+01
  2.053835061016E+01  2.078481081748E+01  2.103422854729E+01  2.128663928986E+01
  2.154207896134E+01  2.180058390887E+01  2.206219091578E+01  2.232693720677E+01
  2.259486045325E+01  2.286599877869E+01  2.314039076403E+01  2.341807545320E+01
  2.369909235864E+01  2.398348146694E+01  2.427128324455E+01  2.456253864348E+01
  2.485728910720E+01  2.515557657649E+01  2.545744349541E+01  2.576293281735E+01
  2.607208801116E+01  2.638495306729E+01  2.670157250410E+01  2.702199137415E+01
  2.734625527064E+01  2.767441033389E+01  2.800650325790E+01  2.834258129699E+01
  2.868269227255E+01  2.902688457982E+01  2.937520719478E+01  2.972770968112E+01
  3.008444219729E+01  3.044545550366E+01  3.081080096970E+01  3.118053058134E+01
  3.155469694832E+01  3.193335331170E+01  3.231655355144E+01  3.270435219405E+01
  3.309680442038E+01  3.349396607343E+01  3.389589366631E+01  3.430264439030E+01
  3.471427612299E+01  3.513084743646E+01  3.555241760570E+01  3.597904661697E+01
  3.641079517637E+01  3.684772471849E+01  3.728989741511E+01  3.773737618409E+01
  3.819022469830E+01  3.864850739468E+01  3.911228948342E+01  3.958163695722E+01
  4.005661660071E+01  4.053729599991E+01  4.102374355191E+01  4.151602847454E+01
  4.201422081623E+01  4.251839146603E+01  4.302861216362E+01  4.354495550958E+01
  4.406749497570E+01
</grid-data>
</grid>
<valence-charge total-charge="6" is-unscreening-charge="yes"
 rescaled-to-z-pseudo="no">
<radfunc>
<data npts="457">
  4.108644738779E-02  4.116974535155E-02  4.141878001749E-02  4.183435289617E-02
  4.244435680066E-02  4.322307235074E-02  4.421614354219E-02  4.535413478519E-02
  4.663475579631E-02  4.812959820684E-02  4.981639884816E-02  5.165207295331E-02
  5.387370839630E-02  5.619763073668E-02  5.852290724835E-02  6.120594275988E-02
  6.430176241810E-02  6.724244853666E-02  7.055554834482E-02  7.428819846954E-02
  7.849349248990E-02  8.223797048823E-02  8.635712122119E-02  9.088839343713E-02
  9.587296680103E-02  1.013561196673E-01  1.073876317221E-01  1.123038456713E-01
  1.175842448275E-01  1.232557303543E-01  1.293471720464E-01  1.358895476500E-01
  1.429160907597E-01  1.504624474564E-01  1.585668417309E-01  1.672702495841E-01
  1.766165814808E-01  1.866528725514E-01  1.937517686906E-01  2.011954038382E-01
  2.090002832873E-01  2.171836626333E-01  2.257635749343E-01  2.347588575909E-01
  2.441891786698E-01  2.540750623362E-01  2.644379130004E-01  2.753000377087E-01
  2.866846662282E-01  2.986159681790E-01  3.111190664606E-01  3.242200460979E-01
  3.379459574966E-01  3.523248129437E-01  3.673855750221E-01  3.831581354190E-01
  3.996732824020E-01  4.169626550166E-01  4.350586818143E-01  4.539945016656E-01
  4.738038639415E-01  4.945210050644E-01  5.161804981455E-01  5.388170721363E-01
  5.624653966505E-01  5.871598283524E-01  6.129341145876E-01  6.262364990696E-01
  6.398210497591E-01  6.536916521888E-01  6.678520798441E-01  6.823059786442E-01
  6.970568504350E-01  7.121080354609E-01  7.274626937843E-01  7.431237856230E-01
  7.590940505778E-01  7.753759857279E-01  7.919718225703E-01  8.088835027887E-01
  8.261126528367E-01  8.436605573292E-01  8.615281312380E-01  8.797158908955E-01
  8.982239238168E-01  9.170518573578E-01  9.361988262342E-01  9.556634389353E-01
  9.754437430764E-01  9.955371897418E-01  1.015940596883E+00  1.036650111844E+00
  1.057661173105E+00  1.078968471329E+00  1.100565909845E+00  1.122446564660E+00
  1.144602644160E+00  1.167025448640E+00  1.189705329816E+00  1.212631650506E+00
  1.235792744661E+00  1.259175877942E+00  1.282767209061E+00  1.306551752097E+00
  1.330513340037E+00  1.354634589761E+00  1.378896868744E+00  1.403280263714E+00
  1.427763551548E+00  1.452324172660E+00  1.476938207170E+00  1.501580354118E+00
  1.526223914015E+00  1.550840775009E+00  1.575401402942E+00  1.599874835600E+00
  1.624228681425E+00  1.648429122985E+00  1.672440925500E+00  1.696227450706E+00
  1.719750676386E+00  1.742971221854E+00  1.765848379758E+00  1.788340154516E+00
  1.810403307787E+00  1.831993411359E+00  1.853064907909E+00  1.873571180087E+00
  1.893464628462E+00  1.912696758892E+00  1.931218279937E+00  1.948979210984E+00
  1.965929001816E+00  1.982016664385E+00  1.997190917613E+00  2.011400346047E+00
  2.024593573217E+00  2.036719450538E+00  2.047727262535E+00  2.057566949103E+00
  2.066189345392E+00  2.073546439700E+00  2.079591649529E+00  2.084280115710E+00
  2.087569013996E+00  2.089417883181E+00  2.089788968198E+00  2.088647576073E+00
  2.085962441919E+00  2.081706101421E+00  2.075855265481E+00  2.068391191898E+00
  2.059300048148E+00  2.048573258590E+00  2.036207828751E+00  2.022206638757E+00
  2.006578697639E+00  1.989339350025E+00  1.970510426857E+00  1.950120332132E+00
  1.928204058450E+00  1.904803125190E+00  1.879965434690E+00  1.853745043590E+00
  1.826201848745E+00  1.797401189591E+00  1.767413371575E+00  1.736313118137E+00
  1.704178961603E+00  1.671092586126E+00  1.637138138334E+00  1.602401523432E+00
  1.566969706049E+00  1.530930035932E+00  1.494369618552E+00  1.457374753620E+00
  1.420030465124E+00  1.382420113806E+00  1.344625065754E+00  1.306724403067E+00
  1.268794632593E+00  1.230909434626E+00  1.193139437978E+00  1.155552026408E+00
  1.118211177030E+00  1.081177331296E+00  1.044507298615E+00  1.008254192153E+00
  9.724673958340E-01  9.371925610676E-01  9.024716312309E-01  8.683428915101E-01
  8.348410412912E-01  8.019972859679E-01  7.698394447646E-01  7.383920710001E-01
  7.076765811218E-01  6.777113888630E-01  6.485120409861E-01  6.200913513114E-01
  5.924595300658E-01  5.656243060315E-01  5.395910395233E-01  5.143628240012E-01
  4.899405869613E-01  4.663232077950E-01  4.435076375982E-01  4.214890219627E-01
  4.002608233809E-01  3.798149427130E-01  3.601418392094E-01  3.412306486191E-01
  3.230692989614E-01  3.056446235750E-01  2.889424711029E-01  2.729478121122E-01
  2.576448420834E-01  2.430170805526E-01  2.290474661927E-01  2.157184477309E-01
  2.030120705337E-01  1.909100587975E-01  1.793938932820E-01  1.684448845574E-01
  1.580442417613E-01  1.481731368857E-01  1.388127646362E-01  1.299443979248E-01
  1.215494390771E-01  1.136094668488E-01  1.061062793609E-01  9.902193307764E-02
  9.233877795644E-02  8.603948891462E-02  8.010709375918E-02  7.452499773526E-02
  6.927700485178E-02  6.434733614632E-02  5.972064505308E-02  5.538203003867E-02
  5.131704467016E-02  4.751170527884E-02  4.395249638100E-02  4.062637401454E-02
  3.752076714691E-02  3.462357730569E-02  3.192317657920E-02  2.940840412923E-02
  2.706856135324E-02  2.489340582779E-02  2.287314415914E-02  2.099842386149E-02
  1.926032437713E-02  1.765034734687E-02  1.616040623311E-02  1.478281539188E-02
  1.351027868429E-02  1.233587771177E-02  1.125305975409E-02  1.025562548301E-02
  9.337716519414E-03  8.493802896106E-03  7.718670483568E-03  7.007408430841E-03
  6.355396669099E-03  5.758293520882E-03  5.212023453663E-03  4.712765012327E-03
  4.256938961252E-03  3.841196663021E-03  3.462408717341E-03  3.117653880527E-03
  2.804208282832E-03  2.519534958137E-03  2.261273697838E-03  2.027231238346E-03
  1.815371789365E-03  1.623807908025E-03  1.450791722058E-03  1.294706503430E-03
  1.154058592295E-03  1.027469669658E-03  9.136693758515E-04  8.114882707643E-04
  7.198511307098E-04  6.377705758957E-04  5.643410216498E-04  4.987329458408E-04
  4.401874643238E-04  3.880112057151E-04  3.415714763693E-04  3.002917060700E-04
  2.636471646652E-04  2.311609396588E-04  2.024001646226E-04  1.769724881911E-04
  1.545227733661E-04  1.347300168610E-04  1.173044782692E-04  1.019850089304E-04
  8.853657049851E-05  7.674793337724E-05  6.642954537719E-05  5.741156116742E-05
  4.954202333265E-05  4.268518610620E-05  3.671997312520E-05  3.153856084426E-05
  2.704507954553E-05  2.315442419384E-05  1.979116770332E-05  1.688856950412E-05
  1.438767262302E-05  1.223648281768E-05  1.038922362942E-05  8.805661541865E-06
  7.450495751916E-06  6.292807372779E-06  5.305563196169E-06  4.465169440505E-06
  3.751071203377E-06  3.145393618813E-06  2.632620992377E-06  2.199310449146E-06
  1.833836880915E-06  1.526166219005E-06  1.267654287715E-06  1.050868710557E-06
  8.694315468600E-07  7.178805302164E-07  5.915469625939E-07  4.864484889727E-07
  3.991951372748E-07  3.269071574323E-07  2.671433320044E-07  2.178385591668E-07
  1.772496275573E-07  1.439082117895E-07  1.165802178807E-07  9.423069984013E-08
  7.599365269414E-08  6.114606375079E-08  4.908567340314E-08  3.931195969513E-08
  3.140991768966E-08  2.503625582662E-08  1.990767737369E-08  1.579095617036E-08
  1.249455254523E-08  9.861547927864E-09  7.763705640407E-09  6.096490979401E-09
  4.774906304048E-09  3.730016730633E-09  2.906059470572E-09  2.258045097115E-09
  1.749772318900E-09  1.352189393153E-09  1.042045324874E-09  8.007826501969E-10
  6.136310548510E-10  4.688674790429E-10  3.572138398138E-10  2.713481790888E-10
  2.055090253675E-10  1.551761327717E-10  1.168136156314E-10  8.766390283186E-11
  6.558295774133E-11  4.890890267982E-11  3.635760034139E-11  2.693992070689E-11
  1.989639740839E-11  1.464578379774E-11  1.074468322599E-11  7.855973432052E-12
  5.724191212781E-12  4.156407459020E-12  3.007418365028E-12  2.168318085705E-12
  1.557711343678E-12  1.114979847455E-12  7.951408431277E-13  5.649354669950E-13
  3.998635712454E-13  2.819442902233E-13  1.980310224129E-13  1.385483533541E-13
  9.654887581058E-14  6.701160750454E-14  4.632216034333E-14  3.188910011135E-14
  2.186194936775E-14  1.492474344411E-14  1.014551679958E-14  6.867021258800E-15
  4.627719707657E-15  3.104896821238E-15  2.073889370646E-15  1.378982643608E-15
  9.127314486326E-16  6.013316917036E-16  3.943188445643E-16  2.573465919056E-16
  1.671480701463E-16  1.080364715532E-16  6.948623135038E-17  4.446914808280E-17
  2.831529569831E-17  0.000000000000E+00  0.000000000000E+00  0.000000000000E+00
  0.000000000000E+00  0.000000000000E+00  0.000000000000E+00  0.000000000000E+00
  0.000000000000E+00  0.000000000000E+00  0.000000000000E+00  0.000000000000E+00
  0.000000000000E+00  0.000000000000E+00  0.000000000000E+00  0.000000000000E+00
  0.000000000000E+00  0.000000000000E+00  0.000000000000E+00  0.000000000000E+00
  0.000000000000E+00  0.000000000000E+00  0.000000000000E+00  0.000000000000E+00
  0.000000000000E+00  0.000000000000E+00  0.000000000000E+00  0.000000000000E+00
  0.000000000000E+00  0.000000000000E+00  0.000000000000E+00  0.000000000000E+00
  0.000000000000E+00  0.000000000000E+00  0.000000000000E+00  0.000000000000E+00
  0.000000000000E+00  0.000000000000E+00  0.000000000000E+00  0.000000000000E+00
  0.000000000000E+00  0.000000000000E+00  0.000000000000E+00  0.000000000000E+00
  0.000000000000E+00  0.000000000000E+00  0.000000000000E+00  0.000000000000E+00
  0.000000000000E+00
</data>
</radfunc>
</valence-charge>
<semilocal-potentials set="scalar_relativistic">
<slps n="3" l="s" rc="2.12945363094" eref="-0.635181238847">
<radfunc>
<data npts="290">
  2.476537079613E+01  2.475606769849E+01  2.472828355580E+01  2.468201648218E+01
  2.461432236556E+01  2.452828338761E+01  2.441917080361E+01  2.429496926227E+01
  2.415625560057E+01  2.399573472783E+01  2.381638417861E+01  2.362332203432E+01
  2.339257022547E+01  2.315453343556E+01  2.291970745157E+01  2.265282751919E+01
  2.235018833004E+01  2.206784280043E+01  2.175556742354E+01  2.141093552881E+01
  2.103150200087E+01  2.070127212013E+01  2.034602175851E+01  1.996460932060E+01
  1.955597650461E+01  1.911917628145E+01  1.865340327060E+01  1.828467278503E+01
  1.789909428242E+01  1.749655007061E+01  1.707700413101E+01  1.664050986580E+01
  1.618721743020E+01  1.571738045852E+01  1.523136198295E+01  1.472963934077E+01
  1.421280786838E+01  1.368158319084E+01  1.331984536844E+01  1.295235753858E+01
  1.257942071676E+01  1.220135882374E+01  1.181851801886E+01  1.143126586426E+01
  1.103999032158E+01  1.064509858471E+01  1.024701575482E+01  9.846183365663E+00
  9.443057769873E+00  9.038108398602E+00  8.631815909143E+00  8.224670236796E+00
  7.817168568837E+00  7.409813259716E+00  7.003109707581E+00  6.597564212882E+00
  6.193681840143E+00  5.791964303915E+00  5.392907899596E+00  4.997001499026E+00
  4.604724629794E+00  4.216545655807E+00  3.832920075101E+00  3.454288949079E+00
  3.081077475332E+00  2.713693714092E+00  2.352527476141E+00  2.174392518127E+00
  1.997949377757E+00  1.823241255821E+00  1.650310065999E+00  1.479196420017E+00
  1.309939615467E+00  1.142577626235E+00  9.771470955269E-01  8.136833314339E-01
  6.522203050017E-01  4.927906507383E-01  3.354256695084E-01  1.801553337455E-01
  2.700829491116E-02 -1.239881068726E-01 -2.728078310983E-01 -4.194261231377E-01
 -5.638194985847E-01 -7.059657257639E-01 -8.458438065003E-01 -9.834339552437E-01
 -1.118717576645E+00 -1.251677241686E+00 -1.382296662459E+00 -1.510560665704E+00
 -1.636455165199E+00 -1.759967133121E+00 -1.881084570463E+00 -1.999796476633E+00
 -2.116092818322E+00 -2.229964497769E+00 -2.341403320506E+00 -2.450401962711E+00
 -2.556953938262E+00 -2.661053565616E+00 -2.762695934603E+00 -2.861876873266E+00
 -2.958592914837E+00 -3.052841264987E+00 -3.144619769433E+00 -3.233926882050E+00
 -3.320761633579E+00 -3.405123601075E+00 -3.487012878191E+00 -3.566430046457E+00
 -3.643376147657E+00 -3.717852657448E+00 -3.789861460368E+00 -3.859404826358E+00
 -3.926485388967E+00 -3.991106125371E+00 -4.053270338396E+00 -4.112981640677E+00
 -4.170243941152E+00 -4.225061434066E+00 -4.277438590660E+00 -4.327380153756E+00
 -4.374891135423E+00 -4.419976817958E+00 -4.462642758370E+00 -4.502894796617E+00
 -4.540739067809E+00 -4.576182018635E+00 -4.609230428237E+00 -4.639891433807E+00
 -4.668172561137E+00 -4.694081760408E+00 -4.717627447463E+00 -4.738818550838E+00
 -4.757664564806E+00 -4.774175608717E+00 -4.788362492866E+00 -4.800236791156E+00
 -4.809810920793E+00 -4.817098229234E+00 -4.822113088596E+00 -4.824870997703E+00
 -4.825388691923E+00 -4.823684260905E+00 -4.819777274272E+00 -4.813688915270E+00
 -4.805442122309E+00 -4.795061738226E+00 -4.782574667010E+00 -4.768010037585E+00
 -4.751399374127E+00 -4.732776772161E+00 -4.712179079537E+00 -4.689646081077E+00
 -4.665220685443E+00 -4.638949112429E+00 -4.610881078497E+00 -4.581069977976E+00
 -4.549573056833E+00 -4.516451575432E+00 -4.481770956081E+00 -4.445600910584E+00
 -4.408015542322E+00 -4.369093416729E+00 -4.328917593324E+00 -4.287575611800E+00
 -4.245159424038E+00 -4.201765263387E+00 -4.157493442145E+00 -4.112448067935E+00
 -4.066736669737E+00 -4.020469724645E+00 -3.973760077172E+00 -3.926722243704E+00
 -3.879471596058E+00 -3.832123423949E+00 -3.784791881234E+00 -3.737588823286E+00
 -3.690622551186E+00 -3.643996473226E+00 -3.597807706362E+00 -3.552145644302E+00
 -3.507090526112E+00 -3.462712046296E+00 -3.419068054622E+00 -3.376203401142E+00
 -3.334148988752E+00 -3.292921101740E+00 -3.252521083850E+00 -3.212935442832E+00
 -3.174136459937E+00 -3.136083381668E+00 -3.098724266879E+00 -3.061998554379E+00
 -3.025840403955E+00 -2.990182846608E+00 -2.954962757149E+00 -2.920126633634E+00
 -2.885637132827E+00 -2.851480268738E+00 -2.817673131966E+00 -2.784266392985E+00
 -2.751246053703E+00 -2.718617974198E+00 -2.686377407520E+00 -2.654519675238E+00
 -2.623040165167E+00 -2.591934329275E+00 -2.561197681776E+00 -2.530825797353E+00
 -2.500814309543E+00 -2.471158909227E+00 -2.441855343245E+00 -2.412899413102E+00
 -2.384286973769E+00 -2.356013932567E+00 -2.328076248119E+00 -2.300469929366E+00
 -2.273191034651E+00 -2.246235670840E+00 -2.219599992507E+00 -2.193280201146E+00
 -2.167272544429E+00 -2.141573315499E+00 -2.116178852284E+00 -2.091085536850E+00
 -2.066289794771E+00 -2.041788094522E+00 -2.017576946892E+00 -1.993652904420E+00
 -1.970012560839E+00 -1.946652550541E+00 -1.923569548054E+00 -1.900760267529E+00
 -1.878221462242E+00 -1.855949924105E+00 -1.833942483184E+00 -1.812196007234E+00
 -1.790707401229E+00 -1.769473606915E+00 -1.748491602361E+00 -1.727758401517E+00
 -1.707271053784E+00 -1.687026643588E+00 -1.667022289954E+00 -1.647255146099E+00
 -1.627722399016E+00 -1.608421269076E+00 -1.589349009626E+00 -1.570502906597E+00
 -1.551880278117E+00 -1.533478474126E+00 -1.515294875999E+00 -1.497326896171E+00
 -1.479571977768E+00 -1.462027594244E+00 -1.444691249018E+00 -1.427560475120E+00
 -1.410632834840E+00 -1.393905919378E+00 -1.377377348503E+00 -1.361044770214E+00
 -1.344905860404E+00 -1.328958322527E+00 -1.313199887277E+00 -1.297628312259E+00
 -1.282241381670E+00 -1.267036905987E+00 -1.252012721654E+00 -1.237166690771E+00
 -1.222496700794E+00 -1.208000664229E+00 -1.193676518342E+00 -1.179522224856E+00
 -1.165535769670E+00 -1.151715162567E+00 -1.138058436930E+00 -1.124563649466E+00
 -1.111228879926E+00 -1.098052230833E+00 -1.085031827212E+00 -1.072165816321E+00
 -1.059452367391E+00 -1.046889671362E+00 -1.034475940629E+00 -1.022209408782E+00
 -1.010088330360E+00 -9.981109806006E-01
</data>
</radfunc>
</slps>
<slps n="3" l="p" rc="1.52480335056" eref="-0.261362583048">
<radfunc>
<data npts="290">
 -6.766053397095E+00 -6.765613153997E+00 -6.764298297093E+00 -6.762108583654E+00
 -6.758904308762E+00 -6.754830677365E+00 -6.749662549380E+00 -6.743776280201E+00
 -6.737196962289E+00 -6.729575028940E+00 -6.721046709693E+00 -6.711849651292E+00
 -6.700831171617E+00 -6.689431460642E+00 -6.678148620595E+00 -6.665276817237E+00
 -6.650611767192E+00 -6.636859026029E+00 -6.621562606992E+00 -6.604569528857E+00
 -6.585716027137E+00 -6.569176975454E+00 -6.551242183518E+00 -6.531814262905E+00
 -6.510792723724E+00 -6.488074706965E+00 -6.463555954122E+00 -6.443922312843E+00
 -6.423173399101E+00 -6.401266511644E+00 -6.378160380243E+00 -6.353815780309E+00
 -6.328196238944E+00 -6.301268839550E+00 -6.273005131287E+00 -6.243382148434E+00
 -6.212383542790E+00 -6.180000829676E+00 -6.157643346021E+00 -6.134673602866E+00
 -6.111096702703E+00 -6.086920267852E+00 -6.062154655257E+00 -6.036813174902E+00
 -6.010912309645E+00 -5.984471933809E+00 -5.957515527375E+00 -5.930070382062E+00
 -5.902167794994E+00 -5.873843245043E+00 -5.845136546257E+00 -5.816091972107E+00
 -5.786758343641E+00 -5.757189073906E+00 -5.727442160436E+00 -5.697580116997E+00
 -5.667669835365E+00 -5.637782367585E+00 -5.607992619092E+00 -5.578378943208E+00
 -5.549022628050E+00 -5.520007267755E+00 -5.491418011325E+00 -5.463340684310E+00
 -5.435860781131E+00 -5.409062329161E+00 -5.383026629746E+00 -5.370319137979E+00
 -5.357830886289E+00 -5.345570643727E+00 -5.333546735308E+00 -5.321766992456E+00
 -5.310238703021E+00 -5.298968561162E+00 -5.287962617452E+00 -5.277226229590E+00
 -5.266764014134E+00 -5.256579799699E+00 -5.246676582111E+00 -5.237056482040E+00
 -5.227720705641E+00 -5.218669508803E+00 -5.209902165593E+00 -5.201416941528E+00
 -5.193211072313E+00 -5.185280748704E+00 -5.177621108155E+00 -5.170226233901E+00
 -5.163089162132E+00 -5.156201897888E+00 -5.149555440254E+00 -5.143139817428E+00
 -5.136944132145E+00 -5.130956617884E+00 -5.125164706197E+00 -5.119555105392E+00
 -5.114113890689E+00 -5.108826605809E+00 -5.103678375818E+00 -5.098654030861E+00
 -5.093738240216E+00 -5.088915655875E+00 -5.084171064645E+00 -5.079489547471E+00
 -5.074856644426E+00 -5.070258523526E+00 -5.065682151207E+00 -5.061115462005E+00
 -5.056547524663E+00 -5.051968701540E+00 -5.047370797943E+00 -5.042747197642E+00
 -5.038092980590E+00 -5.033405018622E+00 -5.028682044664E+00 -5.023924690887E+00
 -5.019135491094E+00 -5.014318842660E+00 -5.009480923400E+00 -5.004629558930E+00
 -4.999774036413E+00 -4.994924860994E+00 -4.990093451847E+00 -4.985291775509E+00
 -4.980531915083E+00 -4.975825575046E+00 -4.971183522655E+00 -4.966614968470E+00
 -4.962126890169E+00 -4.957723305694E+00 -4.953404503797E+00 -4.949166242192E+00
 -4.944998925816E+00 -4.940886780017E+00 -4.936807035871E+00 -4.932729147139E+00