<preamble>

<basis_specs>
===============================================================================
C                    Z=   6    Mass=  12.010        Charge= 0.17977+309
Lmxo=2 Lmxkb= 1    BasisType=split      Semic=F
L=0  Nsemic=0  Cnfigmx=2
          i=1  nzeta=2  polorb=0  (2s)
            splnorm:   0.15000    
               vcte:    0.0000    
               rinn:    0.0000    
               qcoe:    0.0000    
               qyuk:    0.0000    
               qwid:   0.10000E-01
                rcs:    4.1918      3.4319    
            lambdas:    1.0000      1.0000    
L=1  Nsemic=0  Cnfigmx=2
          i=1  nzeta=2  polorb=1  (2p)  (to be polarized perturbatively)
            splnorm:   0.15000    
               vcte:    0.0000    
               rinn:    0.0000    
               qcoe:    0.0000    
               qyuk:    0.0000    
               qwid:   0.10000E-01
                rcs:    4.8703      3.4751    
            lambdas:    1.0000      1.0000    
L=2  Nsemic=0  Cnfigmx=3
          i=1  nzeta=0  polorb=0  (3d)  (perturbative polarization orbital) (from 2p)
-------------------------------------------------------------------------------
L=0  Nkbl=1  erefs: 0.17977+309
L=1  Nkbl=1  erefs: 0.17977+309
===============================================================================
</basis_specs>

<pseudopotential_header>
 C  ca nrl nc  
 ONCVPSP-3.2023-07-03Hamann's oncvpsp                        
 2s 2.00  r= 1.42/2p 2.00  r= 1.41/                                     2s:2p:
</pseudopotential_header>
</preamble>
C                             # Symbol
C                             # Label
    6                         # Atomic number
     4.00000000000                             # Valence charge
     12.0100000000        # Mass 
     33.5129345078        # Self energy 
   2   5                      # Lmax for basis, no. of nl orbitals 
   1   4                      # Lmax for projectors, no. of nl KB projectors
# PAOs:__________________________
  0  2  1  0  2.000000   #orbital l, n, z, is_polarized, population
 500    0.8400499466814190E-02     4.191849233940281     # npts, delta, cutoff
     0.000000000000000        0.5030996704898009    
    0.8400499466814190E-02    0.5032035438299329    
    0.1680099893362838E-01    0.5035201279435505    
    0.2520149840044257E-01    0.5040471161325382    
    0.3360199786725676E-01    0.5047835318189627    
    0.4200249733407095E-01    0.5057280135978148    
    0.5040299680088514E-01    0.5068788204993798    
    0.5880349626769933E-01    0.5082338388940990    
    0.6720399573451352E-01    0.5097905908596948    
    0.7560449520132771E-01    0.5115462439389552    
    0.8400499466814190E-01    0.5134976222191769    
    0.9240549413495609E-01    0.5156412186577363    
    0.1008059936017703        0.5179732085707444    
    0.1092064930685845        0.5204894641944886    
    0.1176069925353987        0.5231855702228073    
    0.1260074920022128        0.5260568402176513    
    0.1344079914690270        0.5290983337851000    
    0.1428084909358412        0.5323048744049079    
    0.1512089904026554        0.5356710677984193    
    0.1596094898694696        0.5391913207173288    
    0.1680099893362838        0.5428598600343768    
    0.1764104888030980        0.5466707520166190    
    0.1848109882699122        0.5506179216623853    
    0.1932114877367264        0.5546951719844904    
    0.2016119872035406        0.5588962031245820    
    0.2100124866703548        0.5632146311867742    
    0.2184129861371689        0.5676440066828053    
    0.2268134856039831        0.5721778324858638    
    0.2352139850707973        0.5768095811959524    
    0.2436144845376115        0.5815327118260537    
    0.2520149840044257        0.5863406857254347    
    0.2604154834712399        0.5912269816641289    
    0.2688159829380541        0.5961851100107823    
    0.2772164824048683        0.6012086259447721    
    0.2856169818716825        0.6062911416524660    
    0.2940174813384966        0.6114263374668633    
    0.3024179808053108        0.6166079719193706    
    0.3108184802721251        0.6218298906821486    
    0.3192189797389392        0.6270860343891542    
    0.3276194792057534        0.6323704453337115    
    0.3360199786725676        0.6376772730499556    
    0.3444204781393818        0.6430007787948724    
    0.3528209776061960        0.6483353389567068    
    0.3612214770730102        0.6536754474242040    
    0.3696219765398244        0.6590157169594550    
    0.3780224760066386        0.6643508796248360    
    0.3864229754734527        0.6696757863217793    
    0.3948234749402669        0.6749854055056804    
    0.4032239744070811        0.6802748211471330    
    0.4116244738738953        0.6855392300149010    
    0.4200249733407095        0.6907739383604415    
    0.4284254728075237        0.6959743580874256    
    0.4368259722743379        0.7011360024925168    
    0.4452264717411521        0.7062544816656720    
    0.4536269712079662        0.7113254976393213    
    0.4620274706747804        0.7163448393761050    
    0.4704279701415947        0.7213083776843036    
    0.4788284696084089        0.7262120601486610    
    0.4872289690752231        0.7310519061621863    
    0.4956294685420372        0.7358240021414949    
    0.5040299680088514        0.7405244970045595    
    0.5124304674756656        0.7451495979853247    
    0.5208309669424798        0.7496955668545332    
    0.5292314664092940        0.7541587166104829    
    0.5376319658761082        0.7585354086971214    
    0.5460324653429224        0.7628220508002479    
    0.5544329648097366        0.7670150952653855    
    0.5628334642765508        0.7711110381734417    
    0.5712339637433650        0.7751064191024789    
    0.5796344632101791        0.7789978215959515    
    0.5880349626769933        0.7827818743496539    
    0.5964354621438075        0.7864552531214895    
    0.6048359616106217        0.7900146833599964    
    0.6132364610774359        0.7934569435395598    
    0.6216369605442501        0.7967788691823585    
    0.6300374600110643        0.7999773575394735    
    0.6384379594778784        0.8030493728962790    
    0.6468384589446926        0.8059919524602815    
    0.6552389584115068        0.8088022127831009    
    0.6636394578783210        0.8114773566622761    
    0.6720399573451352        0.8140146804631200    
    0.6804404568119494        0.8164115817959987    
    0.6888409562787636        0.8186655674801840    
    0.6972414557455778        0.8207742617218834    
    0.7056419552123920        0.8227354144311818    
    0.7140424546792061        0.8245469096005321    
    0.7224429541460203        0.8262067736659842    
    0.7308434536128345        0.8277131837717474    
    0.7392439530796487        0.8290644758587266    
    0.7476444525464629        0.8302591524985351    
    0.7560449520132771        0.8312958903960340    
    0.7644454514800914        0.8321735474857183    
    0.7728459509469054        0.8328911695502220    
    0.7812464504137197        0.8334479962928134    
    0.7896469498805339        0.8338434667999767    
    0.7980474493473481        0.8340772243349621    
    0.8064479488141623        0.8341491204084779    
    0.8148484482809765        0.8340592180785391    
    0.8232489477477907        0.8338077944376192    
    0.8316494472146049        0.8333953422518722    
    0.8400499466814191        0.8328225707240074    
    0.8484504461482332        0.8320904053585088    
    0.8568509456150474        0.8311999869151320    
    0.8652514450818616        0.8301526694439684    
    0.8736519445486758        0.8289500174027405    
    0.8820524440154900        0.8275938018643466    
    0.8904529434823042        0.8260859958298858    
    0.8988534429491184        0.8244287686695564    
    0.9072539424159325        0.8226244797205302    
    0.9156544418827467        0.8206756710776032    
    0.9240549413495609        0.8185850596184905    
    0.9324554408163751        0.8163555283116790    
    0.9408559402831893        0.8139901168597887    
    0.9492564397500035        0.8114920117364824    
    0.9576569392168177        0.8088645356794246    
    0.9660574386836319        0.8061111367051572    
    0.9744579381504461        0.8032353767153552    
    0.9828584376172602        0.8002409197667516    
    0.9912589370840744        0.7971315199181016    
    0.9996594365508886        0.7939110100498975    
     1.008059936017703        0.7905832868884503    
     1.016460435484517        0.7871523004157146    
     1.024860934951331        0.7836220546872563    
     1.033261434418145        0.7799965710087945    
     1.041661933884960        0.7762798751137767    
     1.050062433351774        0.7724760115059208    
     1.058462932818588        0.7685890185764119    
     1.066863432285402        0.7646229150959521    
     1.075263931752216        0.7605816929228322    
     1.083664431219030        0.7564693057275945    
     1.092064930685845        0.7522896595834826    
     1.100465430152659        0.7480466040020585    
     1.108865929619473        0.7437439235873354    
     1.117266429086287        0.7393853303492354    
     1.125666928553102        0.7349744567035376    
     1.134067428019916        0.7305148491788536    
     1.142467927486730        0.7260099628453275    
     1.150868426953544        0.7214631564733222    
     1.159268926420358        0.7168776884245309    
     1.167669425887172        0.7122567132720860    
     1.176069925353987        0.7076032791392787    
     1.184470424820801        0.7029203257432143    
     1.192870924287615        0.6982106831209489    
     1.201271423754429        0.6934770710147369    
     1.209671923221243        0.6887220988837591    
     1.218072422688057        0.6839482665094578    
     1.226472922154872        0.6791579651556954    
     1.234873421621686        0.6743534792397241    
     1.243273921088500        0.6695369884728266    
     1.251674420555314        0.6647105704181953    
     1.260074920022129        0.6598762034221158    
     1.268475419488943        0.6550357698616524    
     1.276875918955757        0.6501910596632049    
     1.285276418422571        0.6453437740333976    
     1.293676917889385        0.6404955293566560    
     1.302077417356200        0.6356478612016918    
     1.310477916823014        0.6308022283929339    
     1.318878416289828        0.6259600170923317    
     1.327278915756642        0.6211225448498564    
     1.335679415223456        0.6162910645763536    
     1.344079914690270        0.6114667683966908    
     1.352480414157085        0.6066507913490358    
     1.360880913623899        0.6018442148904145    
     1.369281413090713        0.5970480701837110    
     1.377681912557527        0.5922633411449445    
     1.386082412024341        0.5874909671966206    
     1.394482911491156        0.5827318457590619    
     1.402883410957970        0.5779868344075016    
     1.411283910424784        0.5732567528937468    
     1.419684409891598        0.5685423845984197    
     1.428084909358412        0.5638444774854503    
     1.436485408825227        0.5591637453787615    
     1.444885908292041        0.5545008688806872    
     1.453286407758855        0.5498564963887019    
     1.461686907225669        0.5452312456408921    
     1.470087406692483        0.5406257047015027    
     1.478487906159297        0.5360404325968346    
     1.486888405626112        0.5314759602994266    
     1.495288905092926        0.5269327918352659    
     1.503689404559740        0.5224114051757573    
     1.512089904026554        0.5179122530953103    
     1.520490403493368        0.5134357640465672    
     1.528890902960183        0.5089823429913601    
     1.537291402426997        0.5045523722147489    
     1.545691901893811        0.5001462121058935    
     1.554092401360625        0.4957642019168380    
     1.562492900827439        0.4914066604974657    
     1.570893400294254        0.4870738870068897    
     1.579293899761068        0.4827661616024442    
     1.587694399227882        0.4784837461068510    
     1.596094898694696        0.4742268846543035    
     1.604495398161510        0.4699958043160379    
     1.612895897628325        0.4657907157061169    
     1.621296397095139        0.4616118135679600    
     1.629696896561953        0.4574592773422881    
     1.638097396028767        0.4533332717170034    
     1.646497895495581        0.4492339471595861    
     1.654898394962395        0.4451614404325703    
     1.663298894429210        0.4411158750925706    
     1.671699393896024        0.4370973619734353    
     1.680099893362838        0.4331059996539585    
     1.688500392829652        0.4291418749106587    
     1.696900892296466        0.4252050631560992    
     1.705301391763281        0.4212956288631504    
     1.713701891230095        0.4174136259756950    
     1.722102390696909        0.4135590983061355    
     1.730502890163723        0.4097320799201403    
     1.738903389630537        0.4059325955090430    
     1.747303889097352        0.4021606607502219    
     1.755704388564166        0.3984162826559013    
     1.764104888030980        0.3946994599106740    
     1.772505387497794        0.3910101831981193    
     1.780905886964608        0.3873484355168765    
     1.789306386431422        0.3837141924864440    
     1.797706885898237        0.3801074226430881    
     1.806107385365051        0.3765280877261181    
     1.814507884831865        0.3729761429548391    
     1.822908384298679        0.3694515372965033    
     1.831308883765493        0.3659542137254899    
     1.839709383232308        0.3624841094740069    
     1.848109882699122        0.3590411562746065    
     1.856510382165936        0.3556252805947133    
     1.864910881632750        0.3522364038634486    
     1.873311381099565        0.3488744426910036    
     1.881711880566379        0.3455393090807356    
     1.890112380033193        0.3422309106342908    
     1.898512879500007        0.3389491507499039    
     1.906913378966821        0.3356939288141113    
     1.915313878433635        0.3324651403871097    
     1.923714377900450        0.3292626773819107    
     1.932114877367264        0.3260864282375024    
     1.940515376834078        0.3229362780862389    
     1.948915876300892        0.3198121089155794    
     1.957316375767706        0.3167137997243828    
     1.965716875234520        0.3136412266739524    
     1.974117374701335        0.3105942632339411    
     1.982517874168149        0.3075727803233068    
     1.990918373634963        0.3045766464464970    
     1.999318873101777        0.3016057278249577    
     2.007719372568591        0.2986598885241418    
     2.016119872035405        0.2957389905761856    
     2.024520371502220        0.2928428940983290    
     2.032920870969034        0.2899714574072481    
     2.041321370435848        0.2871245371294494    
     2.049721869902662        0.2843019883077961    
     2.058122369369477        0.2815036645043175    
     2.066522868836291        0.2787294178994456    
     2.074923368303105        0.2759790993877295    
     2.083323867769919        0.2732525586701768    
     2.091724367236733        0.2705496443433467    
     2.100124866703548        0.2678702039852461    
     2.108525366170362        0.2652140842381568    
     2.116925865637176        0.2625811308885185    
     2.125326365103990        0.2599711889439033    
     2.133726864570805        0.2573841027072024    
     2.142127364037619        0.2548197158481447    
     2.150527863504433        0.2522778714721683    
     2.158928362971247        0.2497584121867629    
     2.167328862438061        0.2472611801653904    
     2.175729361904875        0.2447860172090037    
     2.184129861371690        0.2423327648052660    
     2.192530360838504        0.2399012641855752    
     2.200930860305318        0.2374913563799058    
     2.209331359772132        0.2351028822695794    
     2.217731859238946        0.2327356826380023    
     2.226132358705760        0.2303895982194800    
     2.234532858172575        0.2280644697461100    
     2.242933357639389        0.2257601379928456    
     2.251333857106203        0.2234764438208176    
     2.259734356573017        0.2212132282189108    
     2.268134856039831        0.2189703323436790    
     2.276535355506645        0.2167475975576874    
     2.284935854973460        0.2145448654662655    
     2.293336354440274        0.2123619779527744    
     2.301736853907088        0.2101987772124012    
     2.310137353373902        0.2080551057845775    
     2.318537852840716        0.2059308065840053    
     2.326938352307531        0.2038257229303638    
     2.335338851774345        0.2017396985767743    
     2.343739351241159        0.1996725777369955    
     2.352139850707973        0.1976242051114447    
     2.360540350174787        0.1955944259120486    
     2.368940849641602        0.1935830858860091    
     2.377341349108416        0.1915900313384591    
     2.385741848575230        0.1896151091540751    
     2.394142348042044        0.1876581668177112    
     2.402542847508859        0.1857190524340243    
     2.410943346975673        0.1837976147461728    
     2.419343846442487        0.1818937031535863    
     2.427744345909301        0.1800071677288870    
     2.436144845376115        0.1781378592339269    
     2.444545344842930        0.1762856291350012    
     2.452945844309744        0.1744503296172989    
     2.461346343776558        0.1726318135985482    
     2.469746843243372        0.1708299347419388    
     2.478147342710186        0.1690445474683063    
     2.486547842177000        0.1672755069676597    
     2.494948341643815        0.1655226692100009    
     2.503348841110629        0.1637858909555185    
     2.511749340577443        0.1620650297641392    
     2.520149840044257        0.1603599440045070    
     2.528550339511071        0.1586704928623502    
     2.536950838977885        0.1569965363482860    
     2.545351338444700        0.1553379353051123    
     2.553751837911514        0.1536945514145450    
     2.562152337378328        0.1520662472034649    
     2.570552836845142        0.1504528860496606    
     2.578953336311956        0.1488543321871335    
     2.587353835778770        0.1472704507109162    
     2.595754335245585        0.1457011075814710    
     2.604154834712399        0.1441461696286491    
     2.612555334179213        0.1426055045552751    
     2.620955833646027        0.1410789809403067    
     2.629356333112841        0.1395664682416351    
     2.637756832579656        0.1380678367985025    
     2.646157332046470        0.1365829578336033    
     2.654557831513284        0.1351117034548125    
     2.662958330980098        0.1336539466566070    
     2.671358830446913        0.1322095613211589    
     2.679759329913727        0.1307784222191557    
     2.688159829380541        0.1293604050103005    
     2.696560328847355        0.1279553862435494    
     2.704960828314169        0.1265632433570651    
     2.713361327780984        0.1251838546779421    
     2.721761827247798        0.1238170994216531    
     2.730162326714612        0.1224628576912728    
     2.738562826181426        0.1211210104764585    
     2.746963325648240        0.1197914396522392    
     2.755363825115055        0.1184740279775630    
     2.763764324581869        0.1171686590936588    
     2.772164824048683        0.1158752175221877    
     2.780565323515497        0.1145935886632366    
     2.788965822982311        0.1133236587931033    
     2.797366322449125        0.1120653150619275    
     2.805766821915940        0.1108184454911395    
     2.814167321382754        0.1095829389707835    
     2.822567820849568        0.1083586852566592    
     2.830968320316382        0.1071455749673363    
     2.839368819783196        0.1059434995810148    
     2.847769319250010        0.1047523514322837    
     2.856169818716825        0.1035720237087245    
     2.864570318183639        0.1024024104474110    
     2.872970817650453        0.1012434065312788    
     2.881371317117267        0.1000949076854136    
     2.889771816584081        0.9895681047320923E-01
     2.898172316050895        0.9782901229243833E-01
     2.906572815517710        0.9671141137122949E-01
     2.914973314984524        0.9560390676394280E-01
     2.923373814451338        0.9450639834698769E-01
     2.931774313918152        0.9341878681453210E-01
     2.940174813384967        0.9234097367415159E-01
     2.948575312851781        0.9127286124239131E-01
     2.956975812318595        0.9021435264028613E-01
     2.965376311785409        0.8916535178879013E-01
     2.973776811252223        0.8812576340416037E-01
     2.982177310719038        0.8709549299326749E-01
     2.990577810185852        0.8607444684888088E-01
     2.998978309652666        0.8506253204487618E-01
     3.007378809119480        0.8405965643140818E-01
     3.015779308586295        0.8306572863003943E-01
     3.024179808053109        0.8208065802881614E-01
     3.032580307519923        0.8110435477733112E-01
     3.040980806986737        0.8013672978172555E-01
     3.049381306453551        0.7917769469967276E-01
     3.057781805920365        0.7822716193531724E-01
     3.066182305387180        0.7728504463421128E-01
     3.074582804853994        0.7635125667820186E-01
     3.082983304320808        0.7542571268030585E-01
     3.091383803787622        0.7450832797956473E-01
     3.099784303254436        0.7359901863586910E-01
     3.108184802721250        0.7269770142479180E-01
     3.116585302188065        0.7180429383238110E-01
     3.124985801654879        0.7091871404995605E-01
     3.133386301121693        0.7004088096887727E-01
     3.141786800588507        0.6917071417533213E-01
     3.150187300055321        0.6830813394509065E-01
     3.158587799522135        0.6745306123826612E-01
     3.166988298988950        0.6660541769407208E-01
     3.175388798455764        0.6576512562556554E-01
     3.183789297922578        0.6493210801441353E-01
     3.192189797389392        0.6410628850563613E-01
     3.200590296856206        0.6328759140236313E-01
     3.208990796323021        0.6247594166059337E-01
     3.217391295789835        0.6167126488394863E-01
     3.225791795256649        0.6087348731845493E-01
     3.234192294723463        0.6008253584730884E-01
     3.242592794190277        0.5929833798566237E-01
     3.250993293657092        0.5852082187541662E-01
     3.259393793123906        0.5774991628001619E-01
     3.267794292590720        0.5698555057927510E-01
     3.276194792057534        0.5622765476419388E-01
     3.284595291524349        0.5547615943179976E-01
     3.292995790991163        0.5473099578000058E-01
     3.301396290457977        0.5399209560244365E-01
     3.309796789924791        0.5325939128341101E-01
     3.318197289391605        0.5253281579270923E-01
     3.326597788858420        0.5181230268058863E-01
     3.334998288325234        0.5109778607266890E-01
     3.343398787792048        0.5038920066490139E-01
     3.351799287258862        0.4968648171853268E-01
     3.360199786725676        0.4898956505509566E-01
     3.368600286192490        0.4829838705142132E-01
     3.377000785659305        0.4761288463466107E-01
     3.385401285126119        0.4693299527734998E-01
     3.393801784592933        0.4625865699247290E-01
     3.402202284059747        0.4558980832856101E-01
     3.410602783526561        0.4492638836481147E-01
     3.419003282993375        0.4426833670622061E-01
     3.427403782460190        0.4361559347875858E-01
     3.435804281927004        0.4296809932455053E-01
     3.444204781393818        0.4232579539708957E-01
     3.452605280860632        0.4168862335647301E-01
     3.461005780327446        0.4105652536466407E-01
     3.469406279794260        0.4042944408077124E-01
     3.477806779261075        0.3980732265636960E-01
     3.486207278727889        0.3919010473083018E-01
     3.494607778194703        0.3857773442668355E-01
     3.503008277661517        0.3797015634500926E-01
     3.511408777128331        0.3736731556084343E-01
     3.519809276595146        0.3676915761862948E-01
     3.528209776061960        0.3617562852767823E-01
     3.536610275528774        0.3558667475766299E-01
     3.545010774995588        0.3500224323414117E-01
     3.553411274462403        0.3442228133409551E-01
     3.561811773929217        0.3384673688151774E-01
     3.570212273396031        0.3327555814300374E-01
     3.578612772862845        0.3270869382338362E-01
     3.587013272329659        0.3214609306137895E-01
     3.595413771796474        0.3158770542527980E-01
     3.603814271263288        0.3103348090866484E-01
     3.612214770730102        0.3048336992613338E-01
     3.620615270196916        0.2993732330907239E-01
     3.629015769663730        0.2939529230144963E-01
     3.637416269130544        0.2885722855563537E-01
     3.645816768597359        0.2832308412824547E-01
     3.654217268064173        0.2779281147602534E-01
     3.662617767530987        0.2726636345174778E-01
     3.671018266997801        0.2674369330014499E-01
     3.679418766464615        0.2622475465386819E-01
     3.687819265931430        0.2570950152946789E-01
     3.696219765398244        0.2519788832341522E-01
     3.704620264865058        0.2468986980813725E-01
     3.713020764331872        0.2418540112808594E-01
     3.721421263798686        0.2368443779583329E-01
     3.729821763265500        0.2318693568819449E-01
     3.738222262732315        0.2269285104237256E-01
     3.746622762199129        0.2220214045214231E-01
     3.755023261665943        0.2171476086404868E-01
     3.763423761132757        0.2123066957363800E-01
     3.771824260599571        0.2074982422171595E-01
     3.780224760066385        0.2027218279062673E-01
     3.788625259533200        0.1979770360056990E-01
     3.797025759000014        0.1932634530593277E-01
     3.805426258466828        0.1885806689165415E-01
     3.813826757933642        0.1839282766961351E-01
     3.822227257400457        0.1793058727504721E-01
     3.830627756867271        0.1747130566298532E-01
     3.839028256334085        0.1701494310472544E-01
     3.847428755800899        0.1656146018432098E-01
     3.855829255267713        0.1611081779510047E-01
     3.864229754734528        0.1566297713621136E-01
     3.872630254201342        0.1521789970918992E-01
     3.881030753668156        0.1477554731455159E-01
     3.889431253134970        0.1433588204841616E-01
     3.897831752601784        0.1389886629914787E-01
     3.906232252068599        0.1346446274402513E-01
     3.914632751535413        0.1303263434593463E-01
     3.923033251002227        0.1260334435008544E-01
     3.931433750469041        0.1217655628075637E-01
     3.939834249935855        0.1175223393805860E-01
     3.948234749402669        0.1133034139472641E-01
     3.956635248869484        0.1091084299293074E-01
     3.965035748336298        0.1049370334111741E-01
     3.973436247803112        0.1007888731086430E-01
     3.981836747269926        0.9666360033770520E-02
     3.990237246736740        0.9256086898360230E-02
     3.998637746203554        0.8848033547013200E-02
     4.007038245670369        0.8442165872917577E-02
     4.015438745137183        0.8038450017046991E-02
     4.023839244603997        0.7636852365150553E-02
     4.032239744070811        0.7237339544784400E-02
     4.040640243537625        0.6839878422346006E-02
     4.049040743004440        0.6444436100139974E-02
     4.057441242471254        0.6050979913463374E-02
     4.065841741938068        0.5659477427588744E-02
     4.074242241404883        0.5269896435409056E-02
     4.082642740871696        0.4882204953812664E-02
     4.091043240338511        0.4496371221341760E-02
     4.099443739805325        0.4112363695270940E-02
     4.107844239272139        0.3730151048819574E-02
     4.116244738738954        0.3349702160739732E-02
     4.124645238205767        0.2970986143786380E-02
     4.133045737672582        0.2593972296532839E-02
     4.141446237139395        0.2218630128636970E-02
     4.149846736606210        0.1844929351582198E-02
     4.158247236073024        0.1472839875831372E-02
     4.166647735539838        0.1102331112050876E-02
     4.175048235006653        0.7333746960780481E-03
     4.183448734473466        0.3659407199754408E-03
     4.191849233940281         0.000000000000000    
  0  2  2  0  0.000000   #orbital l, n, z, is_polarized, population
 500    0.6877597180701193E-02     3.431920993169896     # npts, delta, cutoff
     0.000000000000000        0.4833022690217039    
    0.6877597180701193E-02    0.4834027589801670    
    0.1375519436140239E-01    0.4837115544255595    
    0.2063279154210358E-01    0.4842257908711606    
    0.2751038872280477E-01    0.4849448332241973    
    0.3438798590350596E-01    0.4858677953099563    
    0.4126558308420716E-01    0.4869935419372688    
    0.4814318026490835E-01    0.4883206918932237    
    0.5502077744560954E-01    0.4898476216184103    
    0.6189837462631073E-01    0.4915724695197931    
    0.6877597180701192E-01    0.4934931408963554    
    0.7565356898771312E-01    0.4956073134537023    
    0.8253116616841431E-01    0.4979124433821700    
    0.8940876334911550E-01    0.5004057719707925    
    0.9628636052981671E-01    0.5030843327272857    
    0.1031639577105179        0.5059449589720809    
    0.1100415548912191        0.5089842918724702    
    0.1169191520719203        0.5121987888811584    
    0.1237967492526215        0.5155847325419006    
    0.1306743464333227        0.5191382396235116    
    0.1375519436140238        0.5228552705423465    
    0.1444295407947251        0.5267316390323864    