<?xml version="1.0" encoding="UTF-8" ?>
<psml version="1.1" energy_unit="hartree" length_unit="bohr"
 uuid="54c8d220-1996-11ee-6c91-fcfe77fa0631"
 xmlns="http://esl.cecam.org/PSML/ns/1.1">
<provenance creator="ONCVPSP-3.3.1+psml-3.3.1-75 (scalar-relativistic)"
 date="2023-07-03">
<annotation action="semilocal-pseudopotential-generation"
 action-cont="projectors-generation" />
<input-file name="oncvpsp-input">
<![CDATA[# ATOM AND REFERENCE CONFIGURATION
# atsym  z   nc   nv     iexc    psfile
  C  6.00    1    2       3      upf
#
#   n    l    f        energy (Ha)
    1    0    2.00
    2    0    2.00
    2    1    2.00
#
# PSEUDOPOTENTIAL AND OPTIMIZATION
# lmax
    1
#
#   l,   rc,      ep,       ncon, nbas, qcut
    0   1.42330  -0.50140    5    8   6.97628
    1   1.38975  -0.19918    5    8   8.59046
#
# LOCAL POTENTIAL
# lloc, lpopt,  rc(5),   dvloc0
    4    5   0.82223      0.00000
#
# VANDERBILT-KLEINMAN-BYLANDER PROJECTORs
# l, nproj, debl
    0    2   1.09624
    1    2   1.27170
#
# MODEL CORE CHARGE
# icmod, fcfact, rcfact
    0   0.00000   0.00000
#
# LOG DERIVATIVE ANALYSIS
# epsh1, epsh2, depsh
   -5.00    3.00    0.02
#
# OUTPUT GRID
# rlmax, drl
    6.00    0.01
#
# TEST CONFIGURATIONS
# ncnf
    0
# nvcnf
#   n    l    f
]]>
</input-file>
</provenance>
<pseudo-atom-spec atomic-label="C" atomic-number="6" z-pseudo="4"
 flavor="Hamann&apos;s oncvpsp" relativity="scalar" spin-dft="no"
 core-corrections="no">
<annotation pseudo-energy="-5.34598329206" cutoff_hint_low="34"
 cutoff_hint_normal="40" cutoff_hint_high="69" />
<exchange-correlation>
<annotation oncvpsp-xc-code="3"
 oncvpsp-xc-type="LDA -- Ceperley-Alder Perdew-Zunger" />
<libxc-info number-of-functionals="2">
<functional name="Slater exchange (LDA)" type="exchange" id="1" />
<functional name="Perdew &amp; Zunger (LDA)" type="correlation" id="9" />
</libxc-info>
</exchange-correlation>
<valence-configuration total-valence-charge="4">
<shell n="2" l="s" occupation="2" />
<shell n="2" l="p" occupation="2" />
</valence-configuration>
</pseudo-atom-spec>
<grid npts="457">
<annotation type="sampled from oncvpsp log grid"
 recipe="r(i:1..N) = r1*exp(a*(i-1)) + r=0; resampled"
 recipe-cont="r1: scale; a: step" scale="0.833333333333E-04"
 step="0.119285708653E-01" delta="0.500000000000E-02" rmax="44.1860389071" />
<grid-data>
  0.000000000000E+00  5.045625992470E-03  1.007824195345E-02  1.511897001109E-02
  2.013049738999E-02  2.525132916864E-02  3.056134357623E-02  3.568774490113E-02
  4.069159781681E-02  4.584688868969E-02  5.104279894154E-02  5.615372632002E-02
  6.177641205049E-02  6.715622392913E-02  7.300453786039E-02  7.842110024149E-02
  8.423954377804E-02  8.941668576200E-02  9.491200134852E-02  1.007450446548E-01
  1.069365715431E-01  1.121626615380E-01  1.176441554255E-01  1.233935350321E-01
  1.294238921827E-01  1.357489585120E-01  1.423831367325E-01  1.475706852080E-01
  1.529472354136E-01  1.585196733870E-01  1.642951360498E-01  1.702810203484E-01
  1.764849927273E-01  1.829149989485E-01  1.895792742673E-01  1.964863539803E-01
  2.036450843570E-01  2.110646339690E-01  2.161605784915E-01  2.213795594986E-01
  2.267245475832E-01  2.321985850600E-01  2.378047876977E-01  2.435463464919E-01
  2.494265294816E-01  2.554486836094E-01  2.616162366264E-01  2.679326990435E-01
  2.744016661293E-01  2.810268199563E-01  2.878119314973E-01  2.947608627714E-01
  3.018775690421E-01  3.091661010691E-01  3.166306074133E-01  3.242753367987E-01
  3.321046405303E-01  3.401229749713E-01  3.483349040790E-01  3.567451020031E-01
  3.653583557459E-01  3.741795678870E-01  3.832137593741E-01  3.924660723804E-01
  4.019417732319E-01  4.116462554048E-01  4.215850425953E-01  4.266440631065E-01
  4.317637918638E-01  4.369449573661E-01  4.421882968545E-01  4.474945564168E-01
  4.528644910938E-01  4.582988649869E-01  4.637984513667E-01  4.693640327831E-01
  4.749964011765E-01  4.806963579907E-01  4.864647142866E-01  4.923022908580E-01
  4.982099183483E-01  5.041884373685E-01  5.102386986169E-01  5.163615630003E-01
  5.225579017563E-01  5.288285965774E-01  5.351745397363E-01  5.415966342131E-01
  5.480957938237E-01  5.546729433496E-01  5.613290186698E-01  5.680649668938E-01
  5.748817464965E-01  5.817803274545E-01  5.887616913839E-01  5.958268316806E-01
  6.029767536607E-01  6.102124747047E-01  6.175350244011E-01  6.249454446939E-01
  6.324447900302E-01  6.400341275106E-01  6.477145370407E-01  6.554871114852E-01
  6.633529568230E-01  6.713131923049E-01  6.793689506126E-01  6.875213780199E-01
  6.957716345562E-01  7.041208941708E-01  7.125703449009E-01  7.211211890397E-01
  7.297746433082E-01  7.385319390279E-01  7.473943222962E-01  7.563630541638E-01
  7.654394108137E-01  7.746246837435E-01  7.839201799484E-01  7.933272221078E-01
  8.028471487731E-01  8.124813145584E-01  8.222310903331E-01  8.320978634171E-01
  8.420830377781E-01  8.521880342314E-01  8.624142906422E-01  8.727632621299E-01
  8.832364212755E-01  8.938352583308E-01  9.045612814307E-01  9.154160168079E-01
  9.264010090096E-01  9.375178211177E-01  9.487680349711E-01  9.601532513908E-01
  9.716750904075E-01  9.833351914924E-01  9.951352137903E-01  1.007076836356E+00
  1.019161758392E+00  1.031391699493E+00  1.043768399887E+00  1.056293620685E+00
  1.068969144133E+00  1.081796773863E+00  1.094778335149E+00  1.107915675171E+00
  1.121210663273E+00  1.134665191233E+00  1.148281173527E+00  1.162060547610E+00
  1.176005274181E+00  1.190117337471E+00  1.204398745521E+00  1.218851530467E+00
  1.233477748833E+00  1.248279481819E+00  1.263258835601E+00  1.278417941628E+00
  1.293758956927E+00  1.309284064410E+00  1.324995473183E+00  1.340895418862E+00
  1.356986163888E+00  1.373269997855E+00  1.389749237829E+00  1.406426228683E+00
  1.423303343427E+00  1.440382983548E+00  1.457667579351E+00  1.475159590303E+00
  1.492861505386E+00  1.510775843451E+00  1.528905153572E+00  1.547252015415E+00
  1.565819039600E+00  1.584608868076E+00  1.603624174492E+00  1.622867664586E+00
  1.642342076561E+00  1.662050181480E+00  1.681994783658E+00  1.702178721062E+00
  1.722604865715E+00  1.743276124103E+00  1.764195437592E+00  1.785365782843E+00
  1.806790172238E+00  1.828471654304E+00  1.850413314156E+00  1.872618273926E+00
  1.895089693213E+00  1.917830769532E+00  1.940844738766E+00  1.964134875631E+00
  1.987704494139E+00  2.011556948068E+00  2.035695631445E+00  2.060123979023E+00
  2.084845466771E+00  2.109863612372E+00  2.135181975721E+00  2.160804159429E+00
  2.186733809342E+00  2.212974615054E+00  2.239530310435E+00  2.266404674160E+00
  2.293601530250E+00  2.321124748613E+00  2.348978245597E+00  2.377165984544E+00
  2.405691976358E+00  2.434560280075E+00  2.463775003436E+00  2.493340303477E+00
  2.523260387118E+00  2.553539511764E+00  2.584181985905E+00  2.615192169736E+00
  2.646574475773E+00  2.678333369482E+00  2.710473369916E+00  2.742999050355E+00
  2.775915038959E+00  2.809226019427E+00  2.842936731660E+00  2.877051972440E+00
  2.911576596109E+00  2.946515515262E+00  2.981873701445E+00  3.017656185863E+00
  3.053868060093E+00  3.090514476814E+00  3.127600650536E+00  3.165131858342E+00
  3.203113440642E+00  3.241550801930E+00  3.280449411553E+00  3.319814804492E+00
  3.359652582146E+00  3.399968413132E+00  3.440768034089E+00  3.482057250498E+00
  3.523841937504E+00  3.566128040754E+00  3.608921577243E+00  3.652228636170E+00
  3.696055379804E+00  3.740408044362E+00  3.785292940894E+00  3.830716456185E+00
  3.876685053659E+00  3.923205274303E+00  3.970283737595E+00  4.017927142446E+00
  4.066142268155E+00  4.114935975373E+00  4.164315207078E+00  4.214286989563E+00
  4.264858433437E+00  4.316036734639E+00  4.367829175454E+00  4.420243125560E+00
  4.473286043066E+00  4.526965475583E+00  4.581289061290E+00  4.636264530026E+00
  4.691899704386E+00  4.748202500839E+00  4.805180930849E+00  4.862843102019E+00
  4.921197219243E+00  4.980251585874E+00  5.040014604905E+00  5.100494780163E+00
  5.161700717525E+00  5.223641126136E+00  5.286324819649E+00  5.349760717485E+00
  5.413957846095E+00  5.478925340248E+00  5.544672444331E+00  5.611208513663E+00
  5.678543015827E+00  5.746685532017E+00  5.815645758401E+00  5.885433507502E+00
  5.956058709592E+00  6.027531414107E+00  6.099861791076E+00  6.173060132569E+00
  6.247136854160E+00  6.322102496410E+00  6.397967726367E+00  6.474743339083E+00
  6.552440259152E+00  6.631069542262E+00  6.710642376769E+00  6.791170085290E+00
  6.872664126314E+00  6.955136095830E+00  7.038597728980E+00  7.123060901727E+00
  7.208537632548E+00  7.295040084139E+00  7.382580565148E+00  7.471171531930E+00
  7.560825590313E+00  7.651555497397E+00  7.743374163366E+00  7.836294653326E+00
  7.930330189166E+00  8.025494151436E+00  8.121800081253E+00  8.219261682228E+00
  8.317892822415E+00  8.417707536284E+00  8.518720026720E+00  8.620944667040E+00
  8.724396003045E+00  8.829088755081E+00  8.935037820142E+00  9.042258273984E+00
  9.150765373272E+00  9.260574557751E+00  9.371701452444E+00  9.484161869873E+00
  9.597971812312E+00  9.713147474060E+00  9.829705243748E+00  9.947661706673E+00
  1.006703364715E+01  1.018783805092E+01  1.031009210753E+01  1.043381321282E+01
  1.055901897137E+01  1.068572719903E+01  1.081395592542E+01  1.094372339652E+01
  1.107504807728E+01  1.120794865421E+01  1.134244403806E+01  1.147855336652E+01
  1.161629600692E+01  1.175569155900E+01  1.189675985771E+01  1.203952097600E+01
  1.218399522771E+01  1.233020317044E+01  1.247816560849E+01  1.262790359579E+01
  1.277943843894E+01  1.293279170021E+01  1.308798520061E+01  1.324504102302E+01
  1.340398151529E+01  1.356482929348E+01  1.372760724500E+01  1.389233853194E+01
  1.405904659432E+01  1.422775515345E+01  1.439848821530E+01  1.457127007388E+01
  1.474612531477E+01  1.492307881854E+01  1.510215576436E+01  1.528338163354E+01
  1.546678221314E+01  1.565238359970E+01  1.584021220289E+01  1.603029474933E+01
  1.622265828632E+01  1.641733018576E+01  1.661433814799E+01  1.681371020576E+01
  1.701547472823E+01  1.721966042497E+01  1.742629635007E+01  1.763541190627E+01
  1.784703684914E+01  1.806120129133E+01  1.827793570683E+01  1.849727093531E+01
  1.871923818654E+01  1.894386904477E+01  1.917119547331E+01  1.940124981899E+01
  1.963406481682E+01  1.986967359462E+01  2.010810967776E+01  2.034940699389E+01
  2.059359987782E+01  2.084072307635E+01  2.109081175327E+01  2.134390149431E+01
  2.160002831224E+01  2.185922865198E+01  2.212153939581E+01  2.238699786856E+01
  2.265564184298E+01  2.292750954510E+01  2.320263965964E+01  2.348107133555E+01
  2.376284419158E+01  2.404799832188E+01  2.433657430174E+01  2.462861319336E+01
  2.492415655168E+01  2.522324643030E+01  2.552592538747E+01  2.583223649212E+01
  2.614222333002E+01  2.645593000998E+01  2.677340117010E+01  2.709468198414E+01
  2.741981816795E+01  2.774885598597E+01  2.808184225780E+01  2.841882436489E+01
  2.875985025727E+01  2.910496846036E+01  2.945422808188E+01  2.980767881887E+01
  3.016537096469E+01  3.052735541627E+01  3.089368368126E+01  3.126440788544E+01
  3.163958078006E+01  3.201925574942E+01  3.240348681842E+01  3.279232866024E+01
  3.318583660416E+01  3.358406664341E+01  3.398707544313E+01  3.439492034845E+01
  3.480765939263E+01  3.522535130534E+01  3.564805552101E+01  3.607583218726E+01
  3.650874217351E+01  3.694684707959E+01  3.739020924454E+01  3.783889175548E+01
  3.829295845654E+01  3.875247395802E+01  3.921750364552E+01  3.968811368927E+01
  4.016437105354E+01  4.064634350618E+01  4.113409962825E+01  4.162770882379E+01
  4.212724132968E+01  4.263276822563E+01  4.314436144434E+01  4.366209378167E+01
  4.418603890705E+01
</grid-data>
</grid>
<valence-charge total-charge="4" is-unscreening-charge="yes"
 rescaled-to-z-pseudo="no">
<radfunc>
<data npts="457">
  4.820231473096E-01  4.824763862564E-01  4.838309677724E-01  4.860898832733E-01
  4.892284921531E-01  4.933517905699E-01  4.986008954445E-01  5.046033438691E-01
  5.113419694794E-01  5.191862679762E-01  5.280100767064E-01  5.375792684814E-01
  5.491140760329E-01  5.611258593158E-01  5.752494084960E-01  5.893045644581E-01
  6.054275070304E-01  6.206492196755E-01  6.376904377976E-01  6.567532523717E-01
  6.780580889349E-01  6.968763736870E-01  7.174136219133E-01  7.398088549847E-01
  7.642085837994E-01  7.907663719677E-01  8.196421561760E-01  8.429194712149E-01
  8.676649057334E-01  8.939506890081E-01  9.218494674923E-01  9.514337289781E-01
  9.827751228063E-01  1.015943665306E+00  1.051006819474E+00  1.088028437991E+00
  1.127067559059E+00  1.168177045329E+00  1.196756240995E+00  1.226286998332E+00
  1.256778355721E+00  1.288236996436E+00  1.320666974596E+00  1.354069425827E+00
  1.388442263082E+00  1.423779858288E+00  1.460072710756E+00  1.497307103576E+00
  1.535464749549E+00  1.574522428560E+00  1.614451618683E+00  1.655218123724E+00
  1.696781700369E+00  1.739095688552E+00  1.782106649198E+00  1.825754013966E+00
  1.869969752177E+00  1.914678060650E+00  1.959795082670E+00  2.005228662881E+00
  2.050878145334E+00  2.096634222421E+00  2.142378842790E+00  2.187985186679E+00
  2.233317717310E+00  2.278232317102E+00  2.322576517410E+00  2.344484867233E+00
  2.366189830288E+00  2.387670165033E+00  2.408904190318E+00  2.429869805727E+00
  2.450544513890E+00  2.470905444832E+00  2.490929382359E+00  2.510592792530E+00
  2.529871854217E+00  2.548742491773E+00  2.567180409787E+00  2.585161129941E+00
  2.602660029918E+00  2.619652384345E+00  2.636113407713E+00  2.652018299219E+00
  2.667342289440E+00  2.682060688765E+00  2.696148937462E+00  2.709582657263E+00
  2.722337704322E+00  2.734390223393E+00  2.745716703046E+00  2.756294031733E+00
  2.766099554494E+00  2.775111130080E+00  2.783307188246E+00  2.790666786978E+00
  2.797169669370E+00  2.802796319895E+00  2.807528019779E+00  2.811346901203E+00
  2.814236000045E+00  2.816179306883E+00  2.817161815995E+00  2.817169572088E+00
  2.816189714524E+00  2.814210518819E+00  2.811221435234E+00  2.807213124294E+00
  2.802177489109E+00  2.796107704431E+00  2.788998242411E+00  2.780844895045E+00
  2.771644793410E+00  2.761396423755E+00  2.750099640635E+00  2.737755677265E+00
  2.724367153341E+00  2.709938080583E+00  2.694473866293E+00  2.677981315228E+00
  2.660468630061E+00  2.641945410730E+00  2.622422652898E+00  2.601912745727E+00
  2.580429469096E+00  2.557987990309E+00  2.534604860243E+00  2.510298008817E+00
  2.485086739514E+00  2.458991722614E+00  2.432034986692E+00  2.404239907823E+00
  2.375631195867E+00  2.346234877171E+00  2.316078272956E+00  2.285189972700E+00
  2.253599801832E+00  2.221338783146E+00  2.188439091433E+00  2.154934000985E+00
  2.120857825783E+00  2.086245852353E+00  2.051134265509E+00  2.015560067350E+00
  1.979560990091E+00  1.943175403473E+00  1.906442217600E+00  1.869400782156E+00
  1.832090782985E+00  1.794552137015E+00  1.756824886440E+00  1.718949092983E+00
  1.680964732949E+00  1.642911593620E+00  1.604829171420E+00  1.566756572148E+00
  1.528732413466E+00  1.490794729800E+00  1.452980879759E+00  1.415327456206E+00
  1.377870199186E+00  1.340643911939E+00  1.303682380312E+00  1.267018295906E+00
  1.230683183262E+00  1.194707331278E+00  1.159119728874E+00  1.123948004599E+00
  1.089218370345E+00  1.054955572399E+00  1.021182859238E+00  9.879219759788E-01
  9.551931673232E-01  9.230151700216E-01  8.914052229825E-01  8.603790761901E-01
  8.299510045953E-01  8.001338254336E-01  7.709389189651E-01  7.423762524454E-01
  7.144544071416E-01  6.871806081993E-01  6.605607571650E-01  6.345994669621E-01
  6.093000991188E-01  5.846648030426E-01  5.606945571374E-01  5.373892115580E-01
  5.147475323991E-01  4.927672471196E-01  4.714450910024E-01  4.507768544576E-01
  4.307574309794E-01  4.113808655727E-01  3.926404034717E-01  3.745285389784E-01
  3.570370642565E-01  3.401571179247E-01  3.238792332937E-01  3.081933861151E-01
  2.930890417003E-01  2.785552012878E-01  2.645804475426E-01  2.511529890793E-01
  2.382607039099E-01  2.258911817281E-01  2.140317649455E-01  2.026695884109E-01
  1.917916177449E-01  1.813846862374E-01  1.714355302572E-01  1.619308231372E-01
  1.528572075013E-01  1.442013260091E-01  1.359498505013E-01  1.280895095361E-01
  1.206071143109E-01  1.134895829734E-01  1.067239633298E-01  1.002974539629E-01
  9.419742377981E-02  8.841143001242E-02  8.292723469867E-02  7.773281967635E-02
  7.281640012526E-02  6.816643669657E-02  6.377164627138E-02  5.962101139294E-02
  5.570378841944E-02  5.200951444616E-02  4.852801304746E-02  4.524939889047E-02
  4.216408127331E-02  3.926276664172E-02  3.653646013815E-02  3.397646623791E-02
  3.157438852694E-02  2.932212867564E-02  2.721188466253E-02  2.523614830152E-02
  2.338770212504E-02  2.165961567511E-02  2.004524125266E-02  1.853820917486E-02
  1.713242258823E-02  1.582205188435E-02  1.460152876314E-02  1.346553998714E-02
  1.240902086854E-02  1.142714852883E-02  1.051533496914E-02  9.669219987579E-03
  8.884663977804E-03  8.157740641279E-03  7.484729643666E-03  6.862109243908E-03
  6.286548922638E-03  5.754902034619E-03  5.264198508084E-03  4.811637611955E-03
  4.394580810155E-03  4.010544720410E-03  3.657194193284E-03  3.332335525476E-03
  3.033909819824E-03  2.759986502944E-03  2.508757009916E-03  2.278528644053E-03
  2.067718618437E-03  1.874848284667E-03  1.698537553025E-03  1.537499507216E-03
  1.390535215723E-03  1.256528740926E-03  1.134442346160E-03  1.023311900141E-03
  9.222424773786E-04  8.304041525421E-04  7.470279861295E-04  6.714021982335E-04
  6.028685267164E-04  5.408187656808E-04  4.846914797541E-04  4.339688893909E-04
  3.881739221372E-04  3.468674245841E-04  3.096455295738E-04  2.761371730919E-04
  2.460017551931E-04  2.189269392586E-04  1.946265838595E-04  1.728388015178E-04
  1.533241386874E-04  1.358638713445E-04  1.202584106549E-04  1.063258132897E-04
  9.390039107497E-05  8.283141479471E-05  7.298190710531E-05  6.422751967373E-05
  5.645548980962E-05  4.956367202704E-05  4.345964014077E-05  3.805985567445E-05
  3.328889853163E-05  2.907875605500E-05  2.536816677294E-05  2.210201530437E-05
  1.923077506305E-05  1.670999556932E-05  1.449983134063E-05  1.256460949177E-05
  1.087243333065E-05  9.394819385858E-06  8.106365447603E-06  6.984447343861E-06
  6.008942308663E-06  5.161976928983E-06  4.427697781053E-06  3.792062985818E-06
  3.242653026833E-06  2.768499282166E-06  2.359928824979E-06  2.008424145432E-06
  1.706496539539E-06  1.447571998762E-06  1.225888517486E-06  1.036403814376E-06
  8.747125379608E-07  7.369720969095E-07  6.198363214061E-07  5.203962240171E-07
  4.361271866192E-07  3.648419544433E-07  3.046488692838E-07  2.539148215527E-07
  2.112324452808E-07  1.753911215374E-07  1.453513941922E-07  1.202224376385E-07
  9.924224915421E-08  8.176026915946E-08  6.722216085068E-08  5.515650669769E-08
  4.516320320136E-08  3.690335725523E-08  3.009050755365E-08  2.448301285890E-08
  1.987746569466E-08  1.610300528122E-08  1.301641737426E-08  1.049792121518E-08
  8.447555142020E-09  6.782082639144E-09  5.432349807126E-09  4.341033496434E-09
  3.460726746058E-09  2.752314776822E-09  2.183600677411E-09  1.728145154717E-09
  1.364289359897E-09  1.074333904165E-09  8.438507966671E-10  6.611082194935E-10
  5.165908468971E-10  4.026008585644E-10  3.129269280847E-10  2.425703222325E-10
  1.875188557714E-10  1.445608387372E-10  1.111323543826E-10  8.519223938926E-11
  6.512002445258E-11  4.963285157850E-11  3.771803104705E-11  2.857845078219E-11
  2.158851691292E-11  1.625869817241E-11  1.220707861783E-11  9.136601865137E-12
  6.816923392184E-12  5.069982233025E-12  3.758565427340E-12  2.777272967657E-12
  2.045402061689E-12  1.501361037505E-12  1.098298360417E-12  8.006937234101E-13
  5.817083256964E-13  4.211306598341E-13  3.037986642343E-13  2.183691086908E-13
  1.563915380469E-13  1.115916776852E-13  7.932789218825E-14  5.617899737541E-14
  3.963257068420E-14  0.000000000000E+00  0.000000000000E+00  0.000000000000E+00
  0.000000000000E+00  0.000000000000E+00  0.000000000000E+00  0.000000000000E+00
  0.000000000000E+00  0.000000000000E+00  0.000000000000E+00  0.000000000000E+00
  0.000000000000E+00  0.000000000000E+00  0.000000000000E+00  0.000000000000E+00
  0.000000000000E+00  0.000000000000E+00  0.000000000000E+00  0.000000000000E+00
  0.000000000000E+00  0.000000000000E+00  0.000000000000E+00  0.000000000000E+00
  0.000000000000E+00  0.000000000000E+00  0.000000000000E+00  0.000000000000E+00
  0.000000000000E+00  0.000000000000E+00  0.000000000000E+00  0.000000000000E+00
  0.000000000000E+00  0.000000000000E+00  0.000000000000E+00  0.000000000000E+00
  0.000000000000E+00  0.000000000000E+00  0.000000000000E+00  0.000000000000E+00
  0.000000000000E+00  0.000000000000E+00  0.000000000000E+00  0.000000000000E+00
  0.000000000000E+00  0.000000000000E+00  0.000000000000E+00  0.000000000000E+00
  0.000000000000E+00  0.000000000000E+00  0.000000000000E+00  0.000000000000E+00
  0.000000000000E+00  0.000000000000E+00  0.000000000000E+00  0.000000000000E+00
  0.000000000000E+00  0.000000000000E+00  0.000000000000E+00  0.000000000000E+00
  0.000000000000E+00
</data>
</radfunc>
</valence-charge>
<semilocal-potentials set="scalar_relativistic">
<slps n="2" l="s" rc="1.42330334343" eref="-0.501403585618">
<radfunc>
<data npts="290">
  5.742926839532E+00  5.740702960535E+00  5.734058291358E+00  5.722983533299E+00
  5.707608313998E+00  5.687431303214E+00  5.661781356093E+00  5.632499804567E+00
  5.599690190757E+00  5.561581540980E+00  5.518822956958E+00  5.472582638826E+00
  5.417024520411E+00  5.359379017553E+00  5.291873419142E+00  5.224989478392E+00
  5.148627969848E+00  5.076890277711E+00  4.996986984076E+00  4.908116981185E+00
  4.809433980314E+00  4.722828719288E+00  4.628910663741E+00  4.527205488265E+00
  4.417236722211E+00  4.298532378701E+00  4.170632933088E+00  4.068409673202E+00
  3.960594251673E+00  3.847026848095E+00  3.727564068994E+00  3.602082370104E+00
  3.470481703648E+00  3.332689354163E+00  3.188663912771E+00  3.038399324581E+00
  2.881928927033E+00  2.719329378917E+00  2.607583634564E+00  2.493216711634E+00
  2.376287908590E+00  2.256867195550E+00  2.135035477542E+00  2.010884780071E+00
  1.884518345418E+00  1.756050627851E+00  1.625607175876E+00  1.493324389802E+00
  1.359349143321E+00  1.223838258527E+00  1.086957824864E+00  9.488823539498E-01
  8.097937641272E-01  6.698801909560E-01  5.293346227964E-01  3.883533640921E-01
  2.471343330738E-01  1.058752053335E-01 -3.522857986284E-02 -1.759859275752E-01
 -3.162122797870E-01 -4.557318554835E-01 -5.943798931037E-01 -7.320048417824E-01
 -8.684704389727E-01 -1.003657603072E+00 -1.137466060823E+00 -1.203827404531E+00
 -1.269815620870E+00 -1.335423959148E+00 -1.400646997382E+00 -1.465480636195E+00
 -1.529922081595E+00 -1.593969815781E+00 -1.657623555159E+00 -1.720884194731E+00
 -1.783753738085E+00 -1.846235212235E+00 -1.908332566596E+00 -1.970050555471E+00
 -2.031394603475E+00 -2.092370653427E+00 -2.152984996345E+00 -2.213244083287E+00
 -2.273154318954E+00 -2.332721837087E+00 -2.391952257899E+00 -2.450850427968E+00
 -2.509420143233E+00 -2.567663855964E+00 -2.625582366848E+00 -2.683174503590E+00
 -2.740436787727E+00 -2.797363091662E+00 -2.853944288244E+00 -2.910167895558E+00
 -2.966017719946E+00 -3.021473500615E+00 -3.076510559566E+00 -3.131099460933E+00
 -3.185205684179E+00 -3.238789315925E+00 -3.291804765569E+00 -3.344200510112E+00
 -3.395918873921E+00 -3.446895849431E+00 -3.497060964965E+00 -3.546337206041E+00
 -3.594640996635E+00 -3.641882246924E+00 -3.687964473970E+00 -3.732785001738E+00
 -3.776235246574E+00 -3.818201094003E+00 -3.858563372242E+00 -3.897198427271E+00
 -3.933978803616E+00 -3.968774034129E+00 -4.001451541042E+00 -4.031877649384E+00
 -4.059918712446E+00 -4.085442347419E+00 -4.108318777497E+00 -4.128422274742E+00
 -4.145632695717E+00 -4.159837099421E+00 -4.170931434292E+00 -4.178822278125E+00
 -4.183428611488E+00 -4.184683601910E+00 -4.182536372524E+00 -4.176953725218E+00
 -4.167921784691E+00 -4.155447526163E+00 -4.139560146125E+00 -4.120312232370E+00
 -4.097780687057E+00 -4.072067354684E+00 -4.043299306039E+00 -4.011628729618E+00
 -3.977232383961E+00 -3.940310568236E+00 -3.901085574423E+00 -3.859799592994E+00
 -3.816712055250E+00 -3.772096409718E+00 -3.726236347276E+00 -3.679421509933E+00
 -3.631942741308E+00 -3.584086962286E+00 -3.536131782575E+00 -3.488339986928E+00
 -3.440954062492E+00 -3.394190959596E+00 -3.348237300621E+00 -3.303245268397E+00
 -3.259329414817E+00 -3.216564629828E+00 -3.174985498659E+00 -3.134587249007E+00
 -3.095328448511E+00 -3.057135555004E+00 -3.019909347323E+00 -2.983533173340E+00
 -2.947882845597E+00 -2.912837896094E+00 -2.878293774096E+00 -2.844174439454E+00
 -2.810444675452E+00 -2.777122154972E+00 -2.744184242762E+00 -2.711637839365E+00
 -2.679478188121E+00 -2.647700602124E+00 -2.616300461477E+00 -2.585273211448E+00
 -2.554614360575E+00 -2.524319478926E+00 -2.494384196472E+00 -2.464804201562E+00
 -2.435575239501E+00 -2.406693111221E+00 -2.378153672023E+00 -2.349952830408E+00
 -2.322086546968E+00 -2.294550833348E+00 -2.267341751254E+00 -2.240455411531E+00
 -2.213887973274E+00 -2.187635642992E+00 -2.161694673807E+00 -2.136061364698E+00
 -2.110732059765E+00 -2.085703147539E+00 -2.060971060305E+00 -2.036532273464E+00
 -2.012383304908E+00 -1.988520714422E+00 -1.964941103100E+00 -1.941641112788E+00
 -1.918617425530E+00 -1.895866763044E+00 -1.873385886195E+00 -1.851171594500E+00
 -1.829220725625E+00 -1.807530154907E+00 -1.786096794882E+00 -1.764917594817E+00
 -1.743989540261E+00 -1.723309652592E+00 -1.702874988587E+00 -1.682682639982E+00
 -1.662729733052E+00 -1.643013428193E+00 -1.623530919510E+00 -1.604279434411E+00
 -1.585256233207E+00 -1.566458608717E+00 -1.547883885884E+00 -1.529529421385E+00
 -1.511392603254E+00 -1.493470850511E+00 -1.475761612792E+00 -1.458262369981E+00
 -1.440970631855E+00 -1.423883937728E+00 -1.406999856096E+00 -1.390315984294E+00
 -1.373829948155E+00 -1.357539401667E+00 -1.341442026642E+00 -1.325535532386E+00
 -1.309817655371E+00 -1.294286158913E+00 -1.278938832855E+00 -1.263773493251E+00
 -1.248787982057E+00 -1.233980166820E+00 -1.219347940378E+00 -1.204889220559E+00
 -1.190601949882E+00 -1.176484095270E+00 -1.162533647754E+00 -1.148748622193E+00
 -1.135127056985E+00 -1.121667013792E+00 -1.108366577268E+00 -1.095223854775E+00
 -1.082236976124E+00 -1.069404093304E+00 -1.056723380220E+00 -1.044193032433E+00
 -1.031811266903E+00 -1.019576321734E+00 -1.007486455928E+00 -9.955399491294E-01
 -9.837351013871E-01 -9.720702329085E-01 -9.605436838218E-01 -9.491538139394E-01
 -9.378990025245E-01 -9.267776480602E-01 -9.157881680218E-01 -9.049289986513E-01
 -8.941985947349E-01 -8.835954293830E-01 -8.731179938126E-01 -8.627647971330E-01
 -8.525343661333E-01 -8.424252450726E-01 -8.324359954729E-01 -8.225651959144E-01
 -8.128114418332E-01 -8.031733453209E-01 -7.936495349278E-01 -7.842386554671E-01
 -7.749393678223E-01 -7.657503487565E-01 -7.566702907239E-01 -7.476979016841E-01
 -7.388319049178E-01 -7.300710388454E-01 -7.214140568472E-01 -7.128597270861E-01
 -7.044068323323E-01 -6.960541697899E-01 -6.878005509261E-01 -6.796448013015E-01
 -6.715857604035E-01 -6.636222814808E-01
</data>
</radfunc>
</slps>
<slps n="2" l="p" rc="1.40642622868" eref="-0.199184677941">
<radfunc>
<data npts="290">
 -1.248552555333E+01 -1.248487159213E+01 -1.248291736637E+01 -1.247965933669E+01
 -1.247513428893E+01 -1.246919263293E+01 -1.246163358612E+01 -1.245299618116E+01
 -1.244330739622E+01 -1.243203903759E+01 -1.241937603732E+01 -1.240565739249E+01
 -1.238913897986E+01 -1.237195712403E+01 -1.235177800050E+01 -1.233171940313E+01
 -1.230873482132E+01 -1.228705671125E+01 -1.226280903675E+01 -1.223570789016E+01
 -1.220544263973E+01 -1.217872556895E+01 -1.214958015271E+01 -1.211780690977E+01
 -1.208319364114E+01 -1.204551527617E+01 -1.200453386086E+01 -1.197147984566E+01
 -1.193631677848E+01 -1.189893055079E+01 -1.185920347062E+01 -1.181701450681E+01
 -1.177223959365E+01 -1.172475200025E+01 -1.167442276843E+01 -1.162112122111E+01
 -1.156471554124E+01 -1.150507341853E+01 -1.146344871555E+01 -1.142028793211E+01
 -1.137555243081E+01 -1.132920397389E+01 -1.128120482768E+01 -1.123151786444E+01
 -1.118010665878E+01 -1.112693557569E+01 -1.107196984622E+01 -1.101517562660E+01
 -1.095652003575E+01 -1.089597116533E+01 -1.083349805600E+01 -1.076907063258E+01
 -1.070265959006E+01 -1.063423622192E+01 -1.056377218115E+01 -1.049123916429E+01
 -1.041660850810E+01 -1.033985068855E+01 -1.026093471193E+01 -1.017982738874E+01
 -1.009649248199E+01 -1.001088972384E+01 -9.922973697215E+00 -9.832692582869E+00
 -9.739986778034E+00 -9.644787399151E+00 -9.547014690058E+00 -9.497135033354E+00
 -9.446576367503E+00 -9.395324925164E+00 -9.343365948720E+00 -9.290683641435E+00
 -9.237261121141E+00 -9.183080377289E+00 -9.128122232236E+00 -9.072366307788E+00
 -9.015790998075E+00 -8.958373449974E+00 -8.900089552375E+00 -8.840913935714E+00
 -8.780819983298E+00 -8.719779856066E+00 -8.657764532524E+00 -8.594743865731E+00
 -8.530686659268E+00 -8.465560764263E+00 -8.399333199590E+00 -8.331970297453E+00
 -8.263437876593E+00 -8.193701445415E+00 -8.122726437283E+00 -8.050478480253E+00
 -7.976923703396E+00 -7.902029081761E+00 -7.825762821850E+00 -7.748094789263E+00
 -7.668996979806E+00 -7.588444035056E+00 -7.506413802816E+00 -7.422887942378E+00
 -7.337852573812E+00 -7.251298969682E+00 -7.163224286698E+00 -7.073632333714E+00
 -6.982534371313E+00 -6.889949936836E+00 -6.795907687261E+00 -6.700446250660E+00
 -6.603615075214E+00 -6.505475262863E+00 -6.406100372673E+00 -6.305577176938E+00
 -6.204006350937E+00 -6.101503075171E+00 -5.998197526943E+00 -5.894235236273E+00
 -5.789777279558E+00 -5.685000283187E+00 -5.580096208513E+00 -5.475271889478E+00
 -5.370748294774E+00 -5.266759487910E+00 -5.163551261126E+00 -5.061379422833E+00
 -4.960507723332E+00 -4.861205410090E+00 -4.763744411871E+00 -4.668396160616E+00
 -4.575428071024E+00 -4.485099710311E+00 -4.397658704284E+00 -4.313336440541E+00
 -4.232343644715E+00 -4.154865920899E+00 -4.081059361938E+00 -4.011046348661E+00
 -3.944911668301E+00 -3.882699090809E+00 -3.824408546314E+00 -3.769994047136E+00