
     Program PWSCF v.7.1 starts on  9Jun2023 at 21:44:56 

     This program is part of the open-source Quantum ESPRESSO suite
     for quantum simulation of materials; please cite
         "P. Giannozzi et al., J. Phys.:Condens. Matter 21 395502 (2009);
         "P. Giannozzi et al., J. Phys.:Condens. Matter 29 465901 (2017);
         "P. Giannozzi et al., J. Chem. Phys. 152 154105 (2020);
          URL http://www.quantum-espresso.org", 
     in publications or presentations arising from this work. More details at
     http://www.quantum-espresso.org/quote

     Parallel version (MPI & OpenMP), running on     224 processor cores
     Number of MPI processes:               112
     Threads/MPI process:                     2

     MPI processes distributed on     1 nodes
     498702 MiB available memory on the printing compute node when the environment starts

     Reading input from scf.in

     Current dimensions of program PWSCF are:
     Max number of different atomic species (ntypx) = 10
     Max number of k-points (npk) =  40000
     Max angular momentum in pseudopotentials (lmaxx) =  4

     IMPORTANT: XC functional enforced from input :
     Exchange-correlation= XC-001L-012L
                           (   1  12   0   0   0   0   0)
     Any further DFT definition will be discarded
     Please, verify this is what you really want


     K-points division:     npool     =       7
     R & G space division:  proc/nbgrp/npool/nimage =      16
     Subspace diagonalization in iterative solution of the eigenvalue problem:
     a serial algorithm will be used


     Parallelization info
     --------------------
     sticks:   dense  smooth     PW     G-vecs:    dense   smooth      PW
     Min          12      12      4                 1094     1094     226
     Max          13      13      6                 1119     1119     238
     Sum         199     199     73                17673    17673    3753

     Using Slab Decomposition



     bravais-lattice index     =            0
     lattice parameter (alat)  =       5.9526  a.u.
     unit-cell volume          =    1449.7341 (a.u.)^3
     number of atoms/cell      =            3
     number of atomic types    =            2
     number of electrons       =        26.00
     number of Kohn-Sham states=           13
     kinetic-energy cutoff     =      20.0000  Ry
     charge density cutoff     =      80.0000  Ry
     scf convergence threshold =      1.0E-06
     mixing beta               =       0.3000
     number of iterations used =            8  plain     mixing
     Exchange-correlation= XC-001L-012L
                           (   1  12   0   0   0   0   0)

     celldm(1)=   5.952637  celldm(2)=   0.000000  celldm(3)=   0.000000
     celldm(4)=   0.000000  celldm(5)=   0.000000  celldm(6)=   0.000000

     crystal axes: (cart. coord. in units of alat)
               a(1) = (   1.000000   0.000000   0.000000 )  
               a(2) = (   0.500000   0.866025   0.000000 )  
               a(3) = (   0.000000   0.000000   7.936508 )  

     reciprocal axes: (cart. coord. in units 2 pi/alat)
               b(1) = (  1.000000 -0.577350  0.000000 )  
               b(2) = (  0.000000  1.154701  0.000000 )  
               b(3) = (  0.000000  0.000000  0.126000 )  


     PseudoPot. # 1 for W  read from file:
     /global/u2/w/wkim94/pseudo/pseudodojo/nc-sr-04_pw_standard_upf/W.upf
     MD5 check sum: 8a49e2019fff0b057ab5fe5c9a0ca531
     Pseudo is Norm-conserving + core correction, Zval = 14.0
     Generated using ONCVPSP code by D. R. Hamann
     Using radial grid of 1380 points,  8 beta functions with: 
                l(1) =   0
                l(2) =   0
                l(3) =   1
                l(4) =   1
                l(5) =   2
                l(6) =   2
                l(7) =   3
                l(8) =   3

     PseudoPot. # 2 for S  read from file:
     /global/u2/w/wkim94/pseudo/pseudodojo/nc-sr-04_pw_standard_upf/S.upf
     MD5 check sum: cb156da9049275a86b4f507c9016d0ed
     Pseudo is Norm-conserving + core correction, Zval =  6.0
     Generated using ONCVPSP code by D. R. Hamann
     Using radial grid of 1132 points,  6 beta functions with: 
                l(1) =   0
                l(2) =   0
                l(3) =   1
                l(4) =   1
                l(5) =   2
                l(6) =   2

     atomic species   valence    mass     pseudopotential
        W             14.00   183.84000     W ( 1.00)
        S              6.00    78.96000     S ( 1.00)

     No symmetry found


                                    s                        frac. trans.

      isym =  1     identity                                     

 cryst.   s( 1) = (     1          0          0      )
                  (     0          1          0      )
                  (     0          0          1      )

 cart.    s( 1) = (  1.0000000  0.0000000  0.0000000 )
                  (  0.0000000  1.0000000  0.0000000 )
                  (  0.0000000  0.0000000  1.0000000 )


   Cartesian axes

     site n.     atom                  positions (alat units)
         1           W   tau(   1) = (   0.5000000   0.2886751   3.9682540  )
         2           S   tau(   2) = (   1.0000000   0.5773503   3.4603175  )
         3           S   tau(   3) = (   1.0000000   0.5773503   4.4761905  )

   Crystallographic axes

     site n.     atom                  positions (cryst. coord.)
         1           W   tau(   1) = (  0.3333333  0.3333333  0.5000000  )
         2           S   tau(   2) = (  0.6666667  0.6666667  0.4360000  )
         3           S   tau(   3) = (  0.6666667  0.6666667  0.5640000  )

     number of k points=    36
                       cart. coord. in units 2pi/alat
        k(    1) = (   0.0000000   0.0000000   0.0000000), wk =   0.0555556
        k(    2) = (   0.0000000   0.1924501   0.0000000), wk =   0.0555556
        k(    3) = (   0.0000000   0.3849002   0.0000000), wk =   0.0555556
        k(    4) = (   0.0000000  -0.5773503   0.0000000), wk =   0.0555556
        k(    5) = (   0.0000000  -0.3849002   0.0000000), wk =   0.0555556
        k(    6) = (   0.0000000  -0.1924501   0.0000000), wk =   0.0555556
        k(    7) = (   0.1666667  -0.0962250   0.0000000), wk =   0.0555556
        k(    8) = (   0.1666667   0.0962250   0.0000000), wk =   0.0555556
        k(    9) = (   0.1666667   0.2886751   0.0000000), wk =   0.0555556
        k(   10) = (   0.1666667  -0.6735753   0.0000000), wk =   0.0555556
        k(   11) = (   0.1666667  -0.4811252   0.0000000), wk =   0.0555556
        k(   12) = (   0.1666667  -0.2886751   0.0000000), wk =   0.0555556
        k(   13) = (   0.3333333  -0.1924501   0.0000000), wk =   0.0555556
        k(   14) = (   0.3333333  -0.0000000   0.0000000), wk =   0.0555556
        k(   15) = (   0.3333333   0.1924501   0.0000000), wk =   0.0555556
        k(   16) = (   0.3333333  -0.7698004   0.0000000), wk =   0.0555556
        k(   17) = (   0.3333333  -0.5773503   0.0000000), wk =   0.0555556
        k(   18) = (   0.3333333  -0.3849002   0.0000000), wk =   0.0555556
        k(   19) = (  -0.5000000   0.2886751   0.0000000), wk =   0.0555556
        k(   20) = (  -0.5000000   0.4811252   0.0000000), wk =   0.0555556
        k(   21) = (  -0.5000000   0.6735753   0.0000000), wk =   0.0555556
        k(   22) = (  -0.5000000  -0.2886751   0.0000000), wk =   0.0555556
        k(   23) = (  -0.5000000  -0.0962250   0.0000000), wk =   0.0555556
        k(   24) = (  -0.5000000   0.0962250   0.0000000), wk =   0.0555556
        k(   25) = (  -0.3333333   0.1924501   0.0000000), wk =   0.0555556
        k(   26) = (  -0.3333333   0.3849002   0.0000000), wk =   0.0555556
        k(   27) = (  -0.3333333   0.5773503   0.0000000), wk =   0.0555556
        k(   28) = (  -0.3333333  -0.3849002   0.0000000), wk =   0.0555556
        k(   29) = (  -0.3333333  -0.1924501   0.0000000), wk =   0.0555556
        k(   30) = (  -0.3333333   0.0000000   0.0000000), wk =   0.0555556
        k(   31) = (  -0.1666667   0.0962250   0.0000000), wk =   0.0555556
        k(   32) = (  -0.1666667   0.2886751   0.0000000), wk =   0.0555556
        k(   33) = (  -0.1666667   0.4811252   0.0000000), wk =   0.0555556
        k(   34) = (  -0.1666667  -0.4811252   0.0000000), wk =   0.0555556
        k(   35) = (  -0.1666667  -0.2886751   0.0000000), wk =   0.0555556
        k(   36) = (  -0.1666667  -0.0962250   0.0000000), wk =   0.0555556

                       cryst. coord.
        k(    1) = (   0.0000000   0.0000000   0.0000000), wk =   0.0555556
        k(    2) = (   0.0000000   0.1666667   0.0000000), wk =   0.0555556
        k(    3) = (   0.0000000   0.3333333   0.0000000), wk =   0.0555556
        k(    4) = (   0.0000000  -0.5000000   0.0000000), wk =   0.0555556
        k(    5) = (   0.0000000  -0.3333333   0.0000000), wk =   0.0555556
        k(    6) = (   0.0000000  -0.1666667   0.0000000), wk =   0.0555556
        k(    7) = (   0.1666667   0.0000000   0.0000000), wk =   0.0555556
        k(    8) = (   0.1666667   0.1666667   0.0000000), wk =   0.0555556
        k(    9) = (   0.1666667   0.3333333   0.0000000), wk =   0.0555556
        k(   10) = (   0.1666667  -0.5000000   0.0000000), wk =   0.0555556
        k(   11) = (   0.1666667  -0.3333333   0.0000000), wk =   0.0555556
        k(   12) = (   0.1666667  -0.1666667   0.0000000), wk =   0.0555556
        k(   13) = (   0.3333333   0.0000000   0.0000000), wk =   0.0555556
        k(   14) = (   0.3333333   0.1666667   0.0000000), wk =   0.0555556
        k(   15) = (   0.3333333   0.3333333   0.0000000), wk =   0.0555556
        k(   16) = (   0.3333333  -0.5000000   0.0000000), wk =   0.0555556
        k(   17) = (   0.3333333  -0.3333333   0.0000000), wk =   0.0555556
        k(   18) = (   0.3333333  -0.1666667   0.0000000), wk =   0.0555556
        k(   19) = (  -0.5000000   0.0000000   0.0000000), wk =   0.0555556
        k(   20) = (  -0.5000000   0.1666667   0.0000000), wk =   0.0555556
        k(   21) = (  -0.5000000   0.3333333   0.0000000), wk =   0.0555556
        k(   22) = (  -0.5000000  -0.5000000   0.0000000), wk =   0.0555556
        k(   23) = (  -0.5000000  -0.3333333   0.0000000), wk =   0.0555556
        k(   24) = (  -0.5000000  -0.1666667   0.0000000), wk =   0.0555556
        k(   25) = (  -0.3333333  -0.0000000   0.0000000), wk =   0.0555556
        k(   26) = (  -0.3333333   0.1666667   0.0000000), wk =   0.0555556
        k(   27) = (  -0.3333333   0.3333333   0.0000000), wk =   0.0555556
        k(   28) = (  -0.3333333  -0.5000000   0.0000000), wk =   0.0555556
        k(   29) = (  -0.3333333  -0.3333333   0.0000000), wk =   0.0555556
        k(   30) = (  -0.3333333  -0.1666667   0.0000000), wk =   0.0555556
        k(   31) = (  -0.1666667   0.0000000   0.0000000), wk =   0.0555556
        k(   32) = (  -0.1666667   0.1666667   0.0000000), wk =   0.0555556
        k(   33) = (  -0.1666667   0.3333333   0.0000000), wk =   0.0555556
        k(   34) = (  -0.1666667  -0.5000000   0.0000000), wk =   0.0555556
        k(   35) = (  -0.1666667  -0.3333333   0.0000000), wk =   0.0555556
        k(   36) = (  -0.1666667  -0.1666667   0.0000000), wk =   0.0555556

     Dense  grid:    17673 G-vectors     FFT dimensions: (  18,  18, 135)

     Dynamical RAM for                 wfc:       0.03 MB

     Dynamical RAM for     wfc (w. buffer):       0.19 MB

     Dynamical RAM for           str. fact:       0.03 MB

     Dynamical RAM for           local pot:       0.00 MB

     Dynamical RAM for          nlocal pot:       0.14 MB

     Dynamical RAM for                qrad:       3.45 MB

     Dynamical RAM for          rho,v,vnew:       0.12 MB

     Dynamical RAM for               rhoin:       0.04 MB

     Dynamical RAM for            rho*nmix:       0.27 MB

     Dynamical RAM for           G-vectors:       0.07 MB

     Dynamical RAM for          h,s,v(r/c):       0.12 MB

     Dynamical RAM for          <psi|beta>:       0.01 MB

     Dynamical RAM for                 psi:       0.11 MB

     Dynamical RAM for                hpsi:       0.11 MB

     Dynamical RAM for      wfcinit/wfcrot:       0.08 MB

     Estimated static dynamical RAM per process >       4.20 MB

     Estimated max dynamical RAM per process >       4.83 MB

     Estimated total dynamical RAM >     514.76 MB

     WARNING: libxc functional with ID   12 depends
      on external parameters: check the user_guide of
      QE if you need to modify them or to check their
      default values.

     Initial potential from superposition of free atoms

     starting charge      25.9995, renormalised to      26.0000

     negative rho (up, down):  2.985E-02 0.000E+00
     Starting wfcs are   18 randomized atomic wfcs

     total cpu time spent up to now is        0.3 secs

     Self-consistent Calculation

     iteration #  1     ecut=    20.00 Ry     beta= 0.30
     Davidson diagonalization with overlap

---- Real-time Memory Report at c_bands before calling an iterative solver
            53 MiB given to the printing process from OS
             0 MiB allocation reported by mallinfo(arena+hblkhd)
        497553 MiB available memory on the node where the printing process lives
------------------
     ethr =  1.00E-02,  avg # of iterations =  2.1

     Threshold (ethr) on eigenvalues was too large:
     Diagonalizing with lowered threshold

     Davidson diagonalization with overlap

---- Real-time Memory Report at c_bands before calling an iterative solver
            54 MiB given to the printing process from OS
             0 MiB allocation reported by mallinfo(arena+hblkhd)
        497511 MiB available memory on the node where the printing process lives
------------------
     ethr =  5.81E-04,  avg # of iterations =  1.7

     negative rho (up, down):  2.048E-02 0.000E+00

     total cpu time spent up to now is        0.4 secs

     total energy              =    -195.54353101 Ry
     estimated scf accuracy    <       0.15493484 Ry

     iteration #  2     ecut=    20.00 Ry     beta= 0.30
     Davidson diagonalization with overlap

---- Real-time Memory Report at c_bands before calling an iterative solver
            55 MiB given to the printing process from OS
             0 MiB allocation reported by mallinfo(arena+hblkhd)
        497501 MiB available memory on the node where the printing process lives
------------------
     ethr =  5.96E-04,  avg # of iterations =  2.5

     negative rho (up, down):  1.418E-02 0.000E+00

     total cpu time spent up to now is        0.5 secs

     total energy              =    -195.54771427 Ry
     estimated scf accuracy    <       0.04424863 Ry

     iteration #  3     ecut=    20.00 Ry     beta= 0.30
     Davidson diagonalization with overlap

---- Real-time Memory Report at c_bands before calling an iterative solver
            55 MiB given to the printing process from OS
             0 MiB allocation reported by mallinfo(arena+hblkhd)
        497494 MiB available memory on the node where the printing process lives
------------------
     ethr =  1.70E-04,  avg # of iterations =  2.3

     negative rho (up, down):  7.011E-03 0.000E+00

     total cpu time spent up to now is        0.5 secs

     total energy              =    -195.54929417 Ry
     estimated scf accuracy    <       0.01135967 Ry

     iteration #  4     ecut=    20.00 Ry     beta= 0.30
     Davidson diagonalization with overlap

---- Real-time Memory Report at c_bands before calling an iterative solver
            55 MiB given to the printing process from OS
             0 MiB allocation reported by mallinfo(arena+hblkhd)
        497488 MiB available memory on the node where the printing process lives
------------------
     ethr =  4.37E-05,  avg # of iterations =  2.1

     negative rho (up, down):  6.811E-04 0.000E+00

     total cpu time spent up to now is        0.6 secs

     total energy              =    -195.54905104 Ry
     estimated scf accuracy    <       0.00252859 Ry

     iteration #  5     ecut=    20.00 Ry     beta= 0.30
     Davidson diagonalization with overlap

---- Real-time Memory Report at c_bands before calling an iterative solver
            56 MiB given to the printing process from OS
             0 MiB allocation reported by mallinfo(arena+hblkhd)
        497486 MiB available memory on the node where the printing process lives
------------------
     ethr =  9.73E-06,  avg # of iterations =  3.6

     negative rho (up, down):  2.504E-04 0.000E+00

     total cpu time spent up to now is        0.7 secs

     total energy              =    -195.54865059 Ry
     estimated scf accuracy    <       0.00324674 Ry

     iteration #  6     ecut=    20.00 Ry     beta= 0.30
     Davidson diagonalization with overlap

---- Real-time Memory Report at c_bands before calling an iterative solver
            56 MiB given to the printing process from OS
             0 MiB allocation reported by mallinfo(arena+hblkhd)
        497482 MiB available memory on the node where the printing process lives
------------------
     ethr =  9.73E-06,  avg # of iterations =  3.0

     negative rho (up, down):  9.685E-05 0.000E+00

     total cpu time spent up to now is        0.8 secs

     total energy              =    -195.54962516 Ry
     estimated scf accuracy    <       0.00117047 Ry

     iteration #  7     ecut=    20.00 Ry     beta= 0.30
     Davidson diagonalization with overlap

---- Real-time Memory Report at c_bands before calling an iterative solver
            56 MiB given to the printing process from OS
             0 MiB allocation reported by mallinfo(arena+hblkhd)
        497476 MiB available memory on the node where the printing process lives
------------------
     ethr =  4.50E-06,  avg # of iterations =  1.0

     negative rho (up, down):  1.719E-05 0.000E+00

     total cpu time spent up to now is        0.8 secs

     total energy              =    -195.54945453 Ry
     estimated scf accuracy    <       0.00067475 Ry

     iteration #  8     ecut=    20.00 Ry     beta= 0.30
     Davidson diagonalization with overlap

---- Real-time Memory Report at c_bands before calling an iterative solver
            56 MiB given to the printing process from OS
             0 MiB allocation reported by mallinfo(arena+hblkhd)
        497474 MiB available memory on the node where the printing process lives
------------------
     ethr =  2.60E-06,  avg # of iterations =  3.0

     total cpu time spent up to now is        0.9 secs

     total energy              =    -195.54957620 Ry
     estimated scf accuracy    <       0.00001096 Ry

     iteration #  9     ecut=    20.00 Ry     beta= 0.30
     Davidson diagonalization with overlap

---- Real-time Memory Report at c_bands before calling an iterative solver
            56 MiB given to the printing process from OS
             0 MiB allocation reported by mallinfo(arena+hblkhd)
        497474 MiB available memory on the node where the printing process lives
------------------
     ethr =  4.22E-08,  avg # of iterations =  3.4

     total cpu time spent up to now is        1.0 secs

     total energy              =    -195.54958053 Ry
     estimated scf accuracy    <       0.00000701 Ry

     iteration # 10     ecut=    20.00 Ry     beta= 0.30
     Davidson diagonalization with overlap

---- Real-time Memory Report at c_bands before calling an iterative solver
            56 MiB given to the printing process from OS
             0 MiB allocation reported by mallinfo(arena+hblkhd)
        497472 MiB available memory on the node where the printing process lives
------------------
     ethr =  2.69E-08,  avg # of iterations =  2.4

     total cpu time spent up to now is        1.0 secs

     End of self-consistent calculation

          k = 0.0000 0.0000 0.0000 (  2245 PWs)   bands (ev):

   -74.4608 -40.5757 -40.3687 -40.3687 -16.3360 -14.8297  -8.1067  -4.5528
    -4.5528  -4.0883  -3.2820  -3.2820  -2.1095

     occupation numbers 
     1.0000   1.0000   1.0000   1.0000   1.0000   1.0000   1.0000   1.0000
     1.0000   1.0000   1.0000   1.0000   1.0000

          k = 0.0000 0.1925 0.0000 (  2193 PWs)   bands (ev):

   -74.3668 -40.5586 -40.4610 -40.3894 -15.8644 -14.6231  -7.5971  -5.4985
    -5.0260  -4.0849  -3.9056  -3.2271  -2.3277

     occupation numbers 
     1.0000   1.0000   1.0000   1.0000   1.0000   1.0000   1.0000   1.0000
     1.0000   1.0000   1.0000   1.0000   1.0000

          k = 0.0000 0.3849 0.0000 (  2186 PWs)   bands (ev):

   -74.3573 -40.6405 -40.5261 -40.4338 -14.8057 -14.2037  -7.5292  -6.3810
    -6.1927  -4.7958  -3.8153  -3.2475  -3.0935

     occupation numbers 
     1.0000   1.0000   1.0000   1.0000   1.0000   1.0000   1.0000   1.0000
     1.0000   1.0000   1.0000   1.0000   1.0000

          k = 0.0000-0.5774 0.0000 (  2208 PWs)   bands (ev):

   -74.4000 -40.7288 -40.5102 -40.4558 -14.1384 -13.9506  -8.2518  -7.0555
    -6.2357  -5.1449  -4.0455  -2.9272  -2.7859

     occupation numbers 
     1.0000   1.0000   1.0000   1.0000   1.0000   1.0000   1.0000   1.0000
     1.0000   1.0000   1.0000   1.0000   1.0000

          k = 0.0000-0.3849 0.0000 (  2186 PWs)   bands (ev):

   -74.3573 -40.6405 -40.5261 -40.4338 -14.8057 -14.2037  -7.5292  -6.3810
    -6.1927  -4.7958  -3.8153  -3.2475  -3.0935

     occupation numbers 
     1.0000   1.0000   1.0000   1.0000   1.0000   1.0000   1.0000   1.0000
     1.0000   1.0000   1.0000   1.0000   1.0000

          k = 0.0000-0.1925 0.0000 (  2193 PWs)   bands (ev):

   -74.3668 -40.5586 -40.4610 -40.3894 -15.8644 -14.6231  -7.5971  -5.4985
    -5.0260  -4.0849  -3.9056  -3.2271  -2.3277

     occupation numbers 
     1.0000   1.0000   1.0000   1.0000   1.0000   1.0000   1.0000   1.0000
     1.0000   1.0000   1.0000   1.0000   1.0000

          k = 0.1667-0.0962 0.0000 (  2193 PWs)   bands (ev):

   -74.3668 -40.5586 -40.4610 -40.3894 -15.8644 -14.6231  -7.5971  -5.4985
    -5.0260  -4.0849  -3.9056  -3.2271  -2.3277

     occupation numbers 
     1.0000   1.0000   1.0000   1.0000   1.0000   1.0000   1.0000   1.0000
     1.0000   1.0000   1.0000   1.0000   1.0000

          k = 0.1667 0.0962 0.0000 (  2193 PWs)   bands (ev):

   -74.3668 -40.5586 -40.4610 -40.3894 -15.8644 -14.6231  -7.5971  -5.4985
    -5.0260  -4.0849  -3.9056  -3.2271  -2.3277

     occupation numbers 
     1.0000   1.0000   1.0000   1.0000   1.0000   1.0000   1.0000   1.0000
     1.0000   1.0000   1.0000   1.0000   1.0000

          k = 0.1667 0.2887 0.0000 (  2186 PWs)   bands (ev):

   -74.3569 -40.5799 -40.5345 -40.4393 -15.0913 -14.3181  -7.1107  -6.2043
    -5.7832  -5.2693  -3.9886  -3.1895  -2.7043

     occupation numbers 
     1.0000   1.0000   1.0000   1.0000   1.0000   1.0000   1.0000   1.0000
     1.0000   1.0000   1.0000   1.0000   1.0000

          k = 0.1667-0.6736 0.0000 (  2187 PWs)   bands (ev):

   -74.3582 -40.6834 -40.5094 -40.5000 -14.1528 -13.9262  -7.7111  -7.0894
    -5.9969  -5.3406  -4.5381  -3.8580  -2.4212

     occupation numbers 
     1.0000   1.0000   1.0000   1.0000   1.0000   1.0000   1.0000   1.0000
     1.0000   1.0000   1.0000   1.0000   1.0000

          k = 0.1667-0.4811 0.0000 (  2187 PWs)   bands (ev):

   -74.3582 -40.6834 -40.5094 -40.5000 -14.1528 -13.9262  -7.7111  -7.0894
    -5.9969  -5.3406  -4.5381  -3.8580  -2.4212

     occupation numbers 
     1.0000   1.0000   1.0000   1.0000   1.0000   1.0000   1.0000   1.0000
     1.0000   1.0000   1.0000   1.0000   1.0000

          k = 0.1667-0.2887 0.0000 (  2186 PWs)   bands (ev):

   -74.3569 -40.5799 -40.5345 -40.4393 -15.0913 -14.3181  -7.1107  -6.2043
    -5.7832  -5.2693  -3.9886  -3.1895  -2.7043

     occupation numbers 
     1.0000   1.0000   1.0000   1.0000   1.0000   1.0000   1.0000   1.0000
     1.0000   1.0000   1.0000   1.0000   1.0000

          k = 0.3333-0.1925 0.0000 (  2186 PWs)   bands (ev):

   -74.3573 -40.6405 -40.5261 -40.4338 -14.8057 -14.2037  -7.5292  -6.3810
    -6.1927  -4.7958  -3.8153  -3.2475  -3.0935

     occupation numbers 
     1.0000   1.0000   1.0000   1.0000   1.0000   1.0000   1.0000   1.0000
     1.0000   1.0000   1.0000   1.0000   1.0000

          k = 0.3333-0.0000 0.0000 (  2186 PWs)   bands (ev):

   -74.3569 -40.5799 -40.5345 -40.4393 -15.0913 -14.3181  -7.1107  -6.2043
    -5.7832  -5.2693  -3.9886  -3.1895  -2.7043

     occupation numbers 
     1.0000   1.0000   1.0000   1.0000   1.0000   1.0000   1.0000   1.0000
     1.0000   1.0000   1.0000   1.0000   1.0000

          k = 0.3333 0.1925 0.0000 (  2186 PWs)   bands (ev):

   -74.3573 -40.6405 -40.5261 -40.4338 -14.8057 -14.2037  -7.5292  -6.3810
    -6.1927  -4.7958  -3.8153  -3.2475  -3.0935

     occupation numbers 
     1.0000   1.0000   1.0000   1.0000   1.0000   1.0000   1.0000   1.0000
     1.0000   1.0000   1.0000   1.0000   1.0000

          k = 0.3333-0.7698 0.0000 (  2187 PWs)   bands (ev):

   -74.3582 -40.6834 -40.5094 -40.5000 -14.1528 -13.9262  -7.7111  -7.0894
    -5.9969  -5.3406  -4.5381  -3.8580  -2.4212

     occupation numbers 
     1.0000   1.0000   1.0000   1.0000   1.0000   1.0000   1.0000   1.0000
     1.0000   1.0000   1.0000   1.0000   1.0000

          k = 0.3333-0.5774 0.0000 (  2196 PWs)   bands (ev):

   -74.3781 -40.6361 -40.6050 -40.5016 -13.8136 -13.7394  -7.6280  -7.0802
    -6.3325  -5.6103  -5.1259  -4.2604  -1.8601

     occupation numbers 
     1.0000   1.0000   1.0000   1.0000   1.0000   1.0000   1.0000   1.0000
     1.0000   1.0000   1.0000   1.0000   1.0000

          k = 0.3333-0.3849 0.0000 (  2187 PWs)   bands (ev):

   -74.3582 -40.6833 -40.5094 -40.5000 -14.1529 -13.9262  -7.7111  -7.0894
    -5.9969  -5.3406  -4.5381  -3.8580  -2.4212

     occupation numbers 
     1.0000   1.0000   1.0000   1.0000   1.0000   1.0000   1.0000   1.0000
     1.0000   1.0000   1.0000   1.0000   1.0000

          k =-0.5000 0.2887 0.0000 (  2208 PWs)   bands (ev):

   -74.4000 -40.7288 -40.5102 -40.4558 -14.1384 -13.9506  -8.2519  -7.0555
    -6.2357  -5.1449  -4.0455  -2.9272  -2.7859

     occupation numbers 
     1.0000   1.0000   1.0000   1.0000   1.0000   1.0000   1.0000   1.0000
     1.0000   1.0000   1.0000   1.0000   1.0000

          k =-0.5000 0.4811 0.0000 (  2187 PWs)   bands (ev):

   -74.3582 -40.6833 -40.5094 -40.5000 -14.1529 -13.9262  -7.7111  -7.0894
    -5.9969  -5.3406  -4.5381  -3.8580  -2.4212

     occupation numbers 
     1.0000   1.0000   1.0000   1.0000   1.0000   1.0000   1.0000   1.0000
     1.0000   1.0000   1.0000   1.0000   1.0000

          k =-0.5000 0.6736 0.0000 (  2187 PWs)   bands (ev):

   -74.3582 -40.6834 -40.5094 -40.5000 -14.1528 -13.9262  -7.7111  -7.0894
    -5.9969  -5.3406  -4.5381  -3.8580  -2.4212

     occupation numbers 
     1.0000   1.0000   1.0000   1.0000   1.0000   1.0000   1.0000   1.0000
     1.0000   1.0000   1.0000   1.0000   1.0000

          k =-0.5000-0.2887 0.0000 (  2208 PWs)   bands (ev):

   -74.4000 -40.7288 -40.5102 -40.4558 -14.1384 -13.9506  -8.2518  -7.0555
    -6.2357  -5.1449  -4.0455  -2.9272  -2.7859

     occupation numbers 
     1.0000   1.0000   1.0000   1.0000   1.0000   1.0000   1.0000   1.0000
     1.0000   1.0000   1.0000   1.0000   1.0000

          k =-0.5000-0.0962 0.0000 (  2187 PWs)   bands (ev):

   -74.3582 -40.6834 -40.5094 -40.5000 -14.1528 -13.9262  -7.7111  -7.0894
    -5.9969  -5.3406  -4.5381  -3.8580  -2.4212

     occupation numbers 
     1.0000   1.0000   1.0000   1.0000   1.0000   1.0000   1.0000   1.0000
     1.0000   1.0000   1.0000   1.0000   1.0000

          k =-0.5000 0.0962 0.0000 (  2187 PWs)   bands (ev):

   -74.3582 -40.6833 -40.5094 -40.5000 -14.1529 -13.9262  -7.7111  -7.0894
    -5.9969  -5.3406  -4.5381  -3.8580  -2.4212

     occupation numbers 
     1.0000   1.0000   1.0000   1.0000   1.0000   1.0000   1.0000   1.0000
     1.0000   1.0000   1.0000   1.0000   1.0000

          k =-0.3333 0.1925 0.0000 (  2186 PWs)   bands (ev):

   -74.3573 -40.6405 -40.5261 -40.4338 -14.8057 -14.2037  -7.5292  -6.3810
    -6.1927  -4.7958  -3.8153  -3.2475  -3.0935

     occupation numbers 
     1.0000   1.0000   1.0000   1.0000   1.0000   1.0000   1.0000   1.0000
     1.0000   1.0000   1.0000   1.0000   1.0000

          k =-0.3333 0.3849 0.0000 (  2187 PWs)   bands (ev):

   -74.3582 -40.6833 -40.5094 -40.5000 -14.1529 -13.9262  -7.7111  -7.0894
    -5.9969  -5.3406  -4.5381  -3.8580  -2.4212

     occupation numbers 
     1.0000   1.0000   1.0000   1.0000   1.0000   1.0000   1.0000   1.0000
     1.0000   1.0000   1.0000   1.0000   1.0000

          k =-0.3333 0.5774 0.0000 (  2196 PWs)   bands (ev):

   -74.3781 -40.6361 -40.6050 -40.5016 -13.8136 -13.7394  -7.6280  -7.0802
    -6.3325  -5.6103  -5.1259  -4.2604  -1.8601

     occupation numbers 
     1.0000   1.0000   1.0000   1.0000   1.0000   1.0000   1.0000   1.0000
     1.0000   1.0000   1.0000   1.0000   1.0000

          k =-0.3333-0.3849 0.0000 (  2187 PWs)   bands (ev):

   -74.3582 -40.6834 -40.5094 -40.5000 -14.1528 -13.9262  -7.7111  -7.0894
    -5.9969  -5.3406  -4.5381  -3.8580  -2.4212

     occupation numbers 
     1.0000   1.0000   1.0000   1.0000   1.0000   1.0000   1.0000   1.0000
     1.0000   1.0000   1.0000   1.0000   1.0000

          k =-0.3333-0.1925 0.0000 (  2186 PWs)   bands (ev):

   -74.3573 -40.6405 -40.5261 -40.4338 -14.8057 -14.2037  -7.5292  -6.3810
    -6.1927  -4.7958  -3.8153  -3.2475  -3.0935

     occupation numbers 
     1.0000   1.0000   1.0000   1.0000   1.0000   1.0000   1.0000   1.0000
     1.0000   1.0000   1.0000   1.0000   1.0000

          k =-0.3333 0.0000 0.0000 (  2186 PWs)   bands (ev):

   -74.3569 -40.5799 -40.5345 -40.4393 -15.0913 -14.3181  -7.1107  -6.2043
    -5.7832  -5.2693  -3.9886  -3.1895  -2.7043

     occupation numbers 
     1.0000   1.0000   1.0000   1.0000   1.0000   1.0000   1.0000   1.0000
     1.0000   1.0000   1.0000   1.0000   1.0000

          k =-0.1667 0.0962 0.0000 (  2193 PWs)   bands (ev):

   -74.3668 -40.5586 -40.4610 -40.3894 -15.8644 -14.6231  -7.5971  -5.4985
    -5.0260  -4.0849  -3.9056  -3.2271  -2.3277

     occupation numbers 
     1.0000   1.0000   1.0000   1.0000   1.0000   1.0000   1.0000   1.0000
     1.0000   1.0000   1.0000   1.0000   1.0000

          k =-0.1667 0.2887 0.0000 (  2186 PWs)   bands (ev):

   -74.3569 -40.5799 -40.5345 -40.4393 -15.0913 -14.3181  -7.1107  -6.2043
    -5.7832  -5.2693  -3.9886  -3.1895  -2.7043

     occupation numbers 
     1.0000   1.0000   1.0000   1.0000   1.0000   1.0000   1.0000   1.0000
     1.0000   1.0000   1.0000   1.0000   1.0000

          k =-0.1667 0.4811 0.0000 (  2187 PWs)   bands (ev):

   -74.3582 -40.6834 -40.5094 -40.5000 -14.1528 -13.9262  -7.7111  -7.0894
    -5.9969  -5.3406  -4.5381  -3.8580  -2.4212

     occupation numbers 
     1.0000   1.0000   1.0000   1.0000   1.0000   1.0000   1.0000   1.0000
     1.0000   1.0000   1.0000   1.0000   1.0000

          k =-0.1667-0.4811 0.0000 (  2187 PWs)   bands (ev):

   -74.3582 -40.6834 -40.5094 -40.5000 -14.1528 -13.9262  -7.7111  -7.0894
    -5.9969  -5.3406  -4.5381  -3.8580  -2.4212

     occupation numbers 
     1.0000   1.0000   1.0000   1.0000   1.0000   1.0000   1.0000   1.0000
     1.0000   1.0000   1.0000   1.0000   1.0000

          k =-0.1667-0.2887 0.0000 (  2186 PWs)   bands (ev):

   -74.3569 -40.5799 -40.5345 -40.4393 -15.0913 -14.3181  -7.1107  -6.2043
    -5.7832  -5.2693  -3.9886  -3.1895  -2.7043

     occupation numbers 
     1.0000   1.0000   1.0000   1.0000   1.0000   1.0000   1.0000   1.0000
     1.0000   1.0000   1.0000   1.0000   1.0000

          k =-0.1667-0.0962 0.0000 (  2193 PWs)   bands (ev):

   -74.3668 -40.5586 -40.4610 -40.3894 -15.8644 -14.6231  -7.5971  -5.4985
    -5.0260  -4.0849  -3.9056  -3.2271  -2.3277

     occupation numbers 
     1.0000   1.0000   1.0000   1.0000   1.0000   1.0000   1.0000   1.0000
     1.0000   1.0000   1.0000   1.0000   1.0000

     highest occupied level (ev):    -1.8601

!    total energy              =    -195.54958104 Ry
     estimated scf accuracy    <       0.00000033 Ry

     The total energy is the sum of the following terms:
     one-electron contribution =   -1544.35727692 Ry
     hartree contribution      =     770.52468120 Ry
     xc contribution           =     -45.49691238 Ry
     ewald contribution        =     623.77992705 Ry

     convergence has been achieved in  10 iterations

     Writing all to output data dir ./WS2.save/

     init_run     :      0.11s CPU      0.07s WALL (       1 calls)
     electrons    :      1.40s CPU      0.78s WALL (       1 calls)

     Called by init_run:
     wfcinit      :      0.05s CPU      0.03s WALL (       1 calls)
     wfcinit:atom :      0.00s CPU      0.00s WALL (       6 calls)
     wfcinit:wfcr :      0.05s CPU      0.03s WALL (       6 calls)
     potinit      :      0.03s CPU      0.02s WALL (       1 calls)
     hinit0       :      0.02s CPU      0.02s WALL (       1 calls)

     Called by electrons:
     c_bands      :      1.19s CPU      0.65s WALL (      11 calls)
     sum_band     :      0.15s CPU      0.08s WALL (      11 calls)
     v_of_rho     :      0.03s CPU      0.01s WALL (      11 calls)
     v_h          :      0.00s CPU      0.00s WALL (      11 calls)
     v_xc         :      0.02s CPU      0.01s WALL (      11 calls)
     mix_rho      :      0.02s CPU      0.01s WALL (      11 calls)

     Called by c_bands:
     init_us_2    :      0.02s CPU      0.01s WALL (     138 calls)
     init_us_2:cp :      0.02s CPU      0.01s WALL (     138 calls)
     cegterg      :      1.08s CPU      0.58s WALL (      66 calls)

     Called by sum_band:
     sum_band:wei :      0.00s CPU      0.00s WALL (      11 calls)
     sum_band:loo :      0.13s CPU      0.08s WALL (      11 calls)
     sum_band:buf :      0.00s CPU      0.00s WALL (      66 calls)
     sum_band:ini :      0.01s CPU      0.01s WALL (      66 calls)

     Called by *egterg:
     cdiaghg      :      0.17s CPU      0.09s WALL (     239 calls)
     cegterg:over :      0.05s CPU      0.03s WALL (     179 calls)
     cegterg:upda :      0.01s CPU      0.01s WALL (     179 calls)
     cegterg:last :      0.01s CPU      0.01s WALL (      66 calls)
     h_psi        :      0.86s CPU      0.46s WALL (     251 calls)
     g_psi        :      0.00s CPU      0.00s WALL (     179 calls)

     Called by h_psi:
     h_psi:calbec :      0.11s CPU      0.05s WALL (     251 calls)
     vloc_psi     :      0.65s CPU      0.37s WALL (     251 calls)
     add_vuspsi   :      0.09s CPU      0.04s WALL (     251 calls)

     General routines
     calbec       :      0.11s CPU      0.05s WALL (     251 calls)
     fft          :      0.01s CPU      0.01s WALL (      34 calls)
     ffts         :      0.01s CPU      0.00s WALL (      11 calls)
     fftw         :      0.75s CPU      0.42s WALL (    5436 calls)

     Parallel routines

     PWSCF        :      1.63s CPU      1.13s WALL


   This run was terminated on:  21:44:58   9Jun2023            

=------------------------------------------------------------------------------=
   JOB DONE.
=------------------------------------------------------------------------------=
Note: The following floating-point exceptions are signalling: IEEE_DENORMAL
Note: The following floating-point exceptions are signalling: IEEE_DENORMAL
Note: The following floating-point exceptions are signalling: IEEE_DENORMAL
Note: The following floating-point exceptions are signalling: IEEE_DENORMAL
Note: The following floating-point exceptions are signalling: IEEE_DENORMAL
Note: The following floating-point exceptions are signalling: IEEE_DENORMAL
Note: The following floating-point exceptions are signalling: IEEE_DENORMAL
Note: The following floating-point exceptions are signalling: IEEE_DENORMAL
Note: The following floating-point exceptions are signalling: IEEE_DENORMAL
Note: The following floating-point exceptions are signalling: IEEE_DENORMAL
Note: The following floating-point exceptions are signalling: IEEE_DENORMAL
Note: The following floating-point exceptions are signalling: IEEE_DENORMAL
Note: The following floating-point exceptions are signalling: IEEE_DENORMAL
Note: The following floating-point exceptions are signalling: IEEE_DENORMAL
Note: The following floating-point exceptions are signalling: IEEE_DENORMAL
Note: The following floating-point exceptions are signalling: IEEE_DENORMAL
Note: The following floating-point exceptions are signalling: IEEE_DENORMAL
Note: The following floating-point exceptions are signalling: IEEE_DENORMAL
Note: The following floating-point exceptions are signalling: IEEE_DENORMAL
Note: The following floating-point exceptions are signalling: IEEE_DENORMAL
Note: The following floating-point exceptions are signalling: IEEE_DENORMAL
Note: The following floating-point exceptions are signalling: IEEE_DENORMAL
Note: The following floating-point exceptions are signalling: IEEE_DENORMAL
Note: The following floating-point exceptions are signalling: IEEE_DENORMAL
Note: The following floating-point exceptions are signalling: IEEE_DENORMAL
Note: The following floating-point exceptions are signalling: IEEE_DENORMAL
Note: The following floating-point exceptions are signalling: IEEE_DENORMAL
Note: The following floating-point exceptions are signalling: IEEE_DENORMAL
Note: The following floating-point exceptions are signalling: IEEE_DENORMAL
Note: The following floating-point exceptions are signalling: IEEE_DENORMAL
Note: The following floating-point exceptions are signalling: IEEE_DENORMAL
Note: The following floating-point exceptions are signalling: IEEE_DENORMAL
Note: The following floating-point exceptions are signalling: IEEE_DENORMAL
Note: The following floating-point exceptions are signalling: IEEE_DENORMAL
Note: The following floating-point exceptions are signalling: IEEE_DENORMAL
Note: The following floating-point exceptions are signalling: IEEE_DENORMAL
Note: The following floating-point exceptions are signalling: IEEE_DENORMAL
Note: The following floating-point exceptions are signalling: IEEE_DENORMAL
Note: The following floating-point exceptions are signalling: IEEE_DENORMAL
Note: The following floating-point exceptions are signalling: IEEE_DENORMAL
Note: The following floating-point exceptions are signalling: IEEE_DENORMAL
Note: The following floating-point exceptions are signalling: IEEE_DENORMAL
Note: The following floating-point exceptions are signalling: IEEE_DENORMAL
Note: The following floating-point exceptions are signalling: IEEE_DENORMAL
Note: The following floating-point exceptions are signalling: IEEE_DENORMAL
Note: The following floating-point exceptions are signalling: IEEE_DENORMAL
Note: The following floating-point exceptions are signalling: IEEE_DENORMAL
Note: The following floating-point exceptions are signalling: IEEE_DENORMAL
Note: The following floating-point exceptions are signalling: IEEE_DENORMAL
Note: The following floating-point exceptions are signalling: IEEE_DENORMAL
Note: The following floating-point exceptions are signalling: IEEE_DENORMAL
Note: The following floating-point exceptions are signalling: IEEE_DENORMAL
Note: The following floating-point exceptions are signalling: IEEE_DENORMAL
Note: The following floating-point exceptions are signalling: IEEE_DENORMAL
Note: The following floating-point exceptions are signalling: IEEE_DENORMAL
Note: The following floating-point exceptions are signalling: IEEE_DENORMAL
Note: The following floating-point exceptions are signalling: IEEE_DENORMAL
Note: The following floating-point exceptions are signalling: IEEE_DENORMAL
Note: The following floating-point exceptions are signalling: IEEE_DENORMAL
Note: The following floating-point exceptions are signalling: IEEE_DENORMAL
Note: The following floating-point exceptions are signalling: IEEE_DENORMAL
Note: The following floating-point exceptions are signalling: IEEE_DENORMAL
Note: The following floating-point exceptions are signalling: IEEE_DENORMAL
Note: The following floating-point exceptions are signalling: IEEE_DENORMAL
Note: The following floating-point exceptions are signalling: IEEE_DENORMAL
Note: The following floating-point exceptions are signalling: IEEE_DENORMAL
Note: The following floating-point exceptions are signalling: IEEE_DENORMAL
Note: The following floating-point exceptions are signalling: IEEE_DENORMAL
Note: The following floating-point exceptions are signalling: IEEE_DENORMAL
Note: The following floating-point exceptions are signalling: IEEE_DENORMAL
Note: The following floating-point exceptions are signalling: IEEE_DENORMAL
Note: The following floating-point exceptions are signalling: IEEE_DENORMAL
Note: The following floating-point exceptions are signalling: IEEE_DENORMAL
Note: The following floating-point exceptions are signalling: IEEE_DENORMAL
Note: The following floating-point exceptions are signalling: IEEE_DENORMAL
Note: The following floating-point exceptions are signalling: IEEE_DENORMAL
Note: The following floating-point exceptions are signalling: IEEE_DENORMAL
Note: The following floating-point exceptions are signalling: IEEE_DENORMAL
Note: The following floating-point exceptions are signalling: IEEE_DENORMAL
Note: The following floating-point exceptions are signalling: IEEE_DENORMAL
Note: The following floating-point exceptions are signalling: IEEE_DENORMAL
Note: The following floating-point exceptions are signalling: IEEE_DENORMAL
Note: The following floating-point exceptions are signalling: IEEE_DENORMAL
Note: The following floating-point exceptions are signalling: IEEE_DENORMAL
Note: The following floating-point exceptions are signalling: IEEE_DENORMAL
Note: The following floating-point exceptions are signalling: IEEE_DENORMAL
Note: The following floating-point exceptions are signalling: IEEE_DENORMAL
Note: The following floating-point exceptions are signalling: IEEE_DENORMAL
Note: The following floating-point exceptions are signalling: IEEE_DENORMAL
Note: The following floating-point exceptions are signalling: IEEE_DENORMAL
Note: The following floating-point exceptions are signalling: IEEE_DENORMAL
Note: The following floating-point exceptions are signalling: IEEE_DENORMAL
Note: The following floating-point exceptions are signalling: IEEE_DENORMAL
Note: The following floating-point exceptions are signalling: IEEE_DENORMAL
Note: The following floating-point exceptions are signalling: IEEE_DENORMAL
Note: The following floating-point exceptions are signalling: IEEE_DENORMAL
Note: The following floating-point exceptions are signalling: IEEE_DENORMAL
Note: The following floating-point exceptions are signalling: IEEE_DENORMAL
Note: The following floating-point exceptions are signalling: IEEE_DENORMAL
Note: The following floating-point exceptions are signalling: IEEE_DENORMAL
Note: The following floating-point exceptions are signalling: IEEE_DENORMAL
Note: The following floating-point exceptions are signalling: IEEE_DENORMAL
Note: The following floating-point exceptions are signalling: IEEE_DENORMAL
Note: The following floating-point exceptions are signalling: IEEE_DENORMAL
Note: The following floating-point exceptions are signalling: IEEE_DENORMAL
Note: The following floating-point exceptions are signalling: IEEE_DENORMAL
Note: The following floating-point exceptions are signalling: IEEE_DENORMAL
Note: The following floating-point exceptions are signalling: IEEE_DENORMAL
Note: The following floating-point exceptions are signalling: IEEE_DENORMAL
Note: The following floating-point exceptions are signalling: IEEE_DENORMAL
Note: The following floating-point exceptions are signalling: IEEE_DENORMAL
Note: The following floating-point exceptions are signalling: IEEE_DENORMAL
