<?xml version="1.0" encoding="UTF-8" ?>
<psml version="1.1" energy_unit="hartree" length_unit="bohr"
 uuid="98f89660-23d3-11e8-556e-25b47f9f23a8"
 xmlns="http://esl.cecam.org/PSML/ns/1.1">
<provenance creator="ONCVPSP-3.3.0+psml-3.3.0-73 (scalar-relativistic)"
 date="2018-03-09">
<annotation action="semilocal-pseudopotential-generation"
 action-cont="projectors-generation" />
<input-file name="oncvpsp-input">
<![CDATA[# atsym z nc nv iexc psfile
W 74 10 4 -001012 upf
# n l f
1 0 2.0
2 0 2.0
2 1 6.0
3 0 2.0
3 1 6.0
3 2 10.0
4 0 2.0
4 1 6.0
4 2 10.0
4 3 14.0
5 0 2.0
5 1 6.0
5 2 4.0
6 0 2.0
# lmax
3
# l rc ep ncon nbas qcut
0 1.6 0.0 4 8 7.4
1 1.6 0.0 4 8 8.0
2 1.6 0.0 4 9 7.4
3 2.0 0.15 4 8 5.0
# lloc lpopt rc5 dvloc0
4 5 1.25 0.0
# l nproj debl
0 2 1.0
1 2 1.0
2 2 1.0
3 2 3.0
# icmod fcfact rcfact
3 5.0 1.36
# epsh1 epsh2 depsh
-12.0 12.0 0.02
# rlmax drl
6.0 0.01
 0
]]>
</input-file>
</provenance>
<pseudo-atom-spec atomic-label="W" atomic-number="74" z-pseudo="14"
 flavor="Hamann&apos;s oncvpsp" relativity="scalar" spin-dft="no"
 core-corrections="yes">
<annotation pseudo-energy="-68.7896263494" />
<exchange-correlation>
<annotation oncvpsp-xc-code="-1012" oncvpsp-xc-type="libxc-interface" />
<libxc-info number-of-functionals="2">
<functional name="Slater exchange (LDA)" type="exchange" id="1" />
<functional name="Perdew &amp; Wang (LDA)" type="correlation" id="12" />
</libxc-info>
</exchange-correlation>
<valence-configuration total-valence-charge="14">
<shell n="5" l="s" occupation="2" />
<shell n="5" l="p" occupation="6" />
<shell n="5" l="d" occupation="4" />
<shell n="6" l="s" occupation="2" />
</valence-configuration>
</pseudo-atom-spec>
<grid npts="458">
<annotation type="sampled from oncvpsp log grid"
 recipe="r(i:1..N) = r1*exp(a*(i-1)) + r=0; resampled"
 recipe-cont="r1: scale; a: step" scale="0.675675675676E-05"
 step="0.119285708653E-01" delta="0.500000000000E-02" rmax="44.3907762595" />
<grid-data>
  0.000000000000E+00  5.008898274364E-03  1.012493979345E-02  1.518902421755E-02
  2.022377266067E-02  2.536833196880E-02  3.070295048932E-02  3.585310515037E-02
  4.088014357042E-02  4.605932164004E-02  5.127930729975E-02  5.641391631537E-02
  6.206265493084E-02  6.746739433111E-02  7.247312905385E-02  7.785026362628E-02
  8.362635401292E-02  8.876581095806E-02  9.422112548187E-02  1.000117093648E-01
  1.061581673846E-01  1.113462160423E-01  1.167878094769E-01  1.224953386582E-01
  1.284818001142E-01  1.347608255254E-01  1.413467127651E-01  1.464965004517E-01
  1.518339141021E-01  1.573657896297E-01  1.630992120055E-01  1.690415243328E-01
  1.752003372510E-01  1.815835386839E-01  1.881993039416E-01  1.950561061912E-01
  2.021627273089E-01  2.095282691274E-01  2.145871196573E-01  2.197681110743E-01
  2.250741923480E-01  2.305083836481E-01  2.360737780629E-01  2.417735433604E-01
  2.476109237913E-01  2.535892419353E-01  2.597119005926E-01  2.659823847205E-01
  2.724042634172E-01  2.789811919532E-01  2.857169138517E-01  2.926152630197E-01
  2.996801659301E-01  3.069156438563E-01  3.143258151616E-01  3.219148976428E-01
  3.296872109315E-01  3.376471789522E-01  3.457993324409E-01  3.541483115233E-01
  3.626988683567E-01  3.714558698343E-01  3.804243003556E-01  3.896092646634E-01
  3.990159907494E-01  4.086498328301E-01  4.185162743939E-01  4.235384696867E-01
  4.286209313229E-01  4.337643824988E-01  4.389695550888E-01  4.442371897498E-01
  4.495680360268E-01  4.549628524592E-01  4.604224066887E-01  4.659474755689E-01
  4.715388452758E-01  4.771973114191E-01  4.829236791561E-01  4.887187633060E-01
  4.945833884656E-01  5.005183891272E-01  5.065246097968E-01  5.126029051143E-01
  5.187541399757E-01  5.249791896554E-01  5.312789399313E-01  5.376542872104E-01
  5.441061386570E-01  5.506354123208E-01  5.572430372687E-01  5.639299537159E-01
  5.706971131605E-01  5.775454785184E-01  5.844760242607E-01  5.914897365518E-01
  5.985876133904E-01  6.057706647511E-01  6.130399127281E-01  6.203963916808E-01
  6.278411483810E-01  6.353752421616E-01  6.429997450675E-01  6.507157420083E-01
  6.585243309124E-01  6.664266228834E-01  6.744237423580E-01  6.825168272663E-01
  6.907070291935E-01  6.989955135438E-01  7.073834597063E-01  7.158720612228E-01
  7.244625259575E-01  7.331560762690E-01  7.419539491842E-01  7.508573965744E-01
  7.598676853333E-01  7.689860975573E-01  7.782139307280E-01  7.875524978967E-01
  7.970031278715E-01  8.065671654059E-01  8.162459713908E-01  8.260409230475E-01
  8.359534141241E-01  8.459848550936E-01  8.561366733547E-01  8.664103134349E-01
  8.768072371962E-01  8.873289240425E-01  8.979768711310E-01  9.087525935846E-01
  9.196576247076E-01  9.306935162041E-01  9.418618383985E-01  9.531641804593E-01
  9.646021506248E-01  9.761773764323E-01  9.878915049495E-01  9.997462030089E-01
  1.011743157445E+00  1.023884075334E+00  1.036170684238E+00  1.048604732449E+00
  1.061187989239E+00  1.073922245109E+00  1.086809312051E+00  1.099851023795E+00
  1.113049236081E+00  1.126405826914E+00  1.139922696837E+00  1.153601769199E+00
  1.167444990429E+00  1.181454330314E+00  1.195631782278E+00  1.209979363666E+00
  1.224499116030E+00  1.239193105422E+00  1.254063422687E+00  1.269112183759E+00
  1.284341529964E+00  1.299753628324E+00  1.315350671864E+00  1.331134879926E+00
  1.347108498485E+00  1.363273800467E+00  1.379633086073E+00  1.396188683106E+00
  1.412942947303E+00  1.429898262670E+00  1.447057041823E+00  1.464421726324E+00
  1.481994787040E+00  1.499778724485E+00  1.517776069179E+00  1.535989382009E+00
  1.554421254593E+00  1.573074309648E+00  1.591951201364E+00  1.611054615780E+00
  1.630387271169E+00  1.649951918424E+00  1.669751341445E+00  1.689788357542E+00
  1.710065817832E+00  1.730586607646E+00  1.751353646938E+00  1.772369890701E+00
  1.793638329390E+00  1.815161989343E+00  1.836943933215E+00  1.858987260413E+00
  1.881295107538E+00  1.903870648829E+00  1.926717096615E+00  1.949837701774E+00
  1.973235754195E+00  1.996914583246E+00  2.020877558245E+00  2.045128088943E+00
  2.069669626011E+00  2.094505661523E+00  2.119639729461E+00  2.145075406215E+00
  2.170816311089E+00  2.196866106822E+00  2.223228500104E+00  2.249907242105E+00
  2.276906129011E+00  2.304229002559E+00  2.331879750590E+00  2.359862307597E+00
  2.388180655288E+00  2.416838823151E+00  2.445840889029E+00  2.475190979697E+00
  2.504893271454E+00  2.534951990711E+00  2.565371414600E+00  2.596155871575E+00
  2.627309742034E+00  2.658837458938E+00  2.690743508446E+00  2.723032430547E+00
  2.755708819713E+00  2.788777325550E+00  2.822242653457E+00  2.856109565298E+00
  2.890382880082E+00  2.925067474643E+00  2.960168284338E+00  2.995690303750E+00
  3.031638587395E+00  3.068018250444E+00  3.104834469450E+00  3.142092483083E+00
  3.179797592880E+00  3.217955163994E+00  3.256570625962E+00  3.295649473474E+00
  3.335197267156E+00  3.375219634362E+00  3.415722269974E+00  3.456710937214E+00
  3.498191468460E+00  3.540169766082E+00  3.582651803275E+00  3.625643624914E+00
  3.669151348413E+00  3.713181164594E+00  3.757739338569E+00  3.802832210632E+00
  3.848466197159E+00  3.894647791525E+00  3.941383565024E+00  3.988680167804E+00
  4.036544329817E+00  4.084982861775E+00  4.134002656117E+00  4.183610687990E+00
  4.233814016246E+00  4.284619784441E+00  4.336035221854E+00  4.388067644516E+00
  4.440724456251E+00  4.494013149726E+00  4.547941307522E+00  4.602516603213E+00
  4.657746802451E+00  4.713639764081E+00  4.770203441249E+00  4.827445882544E+00
  4.885375233135E+00  4.943999735933E+00  5.003327732764E+00  5.063367665557E+00
  5.124128077544E+00  5.185617614474E+00  5.247845025848E+00  5.310819166158E+00
  5.374548996152E+00  5.439043584106E+00  5.504312107115E+00  5.570363852400E+00
  5.637208218629E+00  5.704854717253E+00  5.773312973860E+00  5.842592729546E+00
  5.912703842301E+00  5.983656288408E+00  6.055460163869E+00  6.128125685836E+00
  6.201663194066E+00  6.276083152394E+00  6.351396150223E+00  6.427612904026E+00
  6.504744258874E+00  6.582801189981E+00  6.661794804260E+00  6.741736341912E+00
  6.822637178014E+00  6.904508824151E+00  6.987362930040E+00  7.071211285201E+00
  7.156065820623E+00  7.241938610471E+00  7.328841873796E+00  7.416787976282E+00
  7.505789431997E+00  7.595858905181E+00  7.687009212044E+00  7.779253322588E+00
  7.872604362459E+00  7.967075614809E+00  8.062680522186E+00  8.159432688453E+00
  8.257345880714E+00  8.356434031283E+00  8.456711239658E+00  8.558191774534E+00
  8.660890075828E+00  8.764820756738E+00  8.869998605819E+00  8.976438589089E+00
  9.084155852158E+00  9.193165722384E+00  9.303483711053E+00  9.415125515585E+00
  9.528107021772E+00  9.642444306033E+00  9.758153637706E+00  9.875251481358E+00
  9.993754499135E+00  1.011367955312E+01  1.023504370776E+01  1.035786423225E+01
  1.048215860304E+01  1.060794450628E+01  1.073523984035E+01  1.086406271844E+01
  1.099443147106E+01  1.112636464871E+01  1.125988102450E+01  1.139499959679E+01
  1.153173959195E+01  1.167012046706E+01  1.181016191266E+01  1.195188385561E+01
  1.209530646188E+01  1.224045013942E+01  1.238733554109E+01  1.253598356759E+01
  1.268641537040E+01  1.283865235484E+01  1.299271618310E+01  1.314862877730E+01
  1.330641232263E+01  1.346608927050E+01  1.362768234174E+01  1.379121452985E+01
  1.395670910420E+01  1.412418961345E+01  1.429367988882E+01  1.446520404748E+01
  1.463878649605E+01  1.481445193400E+01  1.499222535721E+01  1.517213206150E+01
  1.535419764624E+01  1.553844801799E+01  1.572490939421E+01  1.591360830694E+01
  1.610457160662E+01  1.629782646590E+01  1.649340038349E+01  1.669132118809E+01
  1.689161704235E+01  1.709431644686E+01  1.729944824422E+01  1.750704162315E+01
  1.771712612263E+01  1.792973163610E+01  1.814488841573E+01  1.836262707672E+01
  1.858297860164E+01  1.880597434486E+01  1.903164603700E+01  1.926002578944E+01
  1.949114609892E+01  1.972503985211E+01  1.996174033033E+01  2.020128121429E+01
  2.044369658887E+01  2.068902094793E+01  2.093728919931E+01  2.118853666970E+01
  2.144279910974E+01  2.170011269905E+01  2.196051405144E+01  2.222404022006E+01
  2.249072870270E+01  2.276061744713E+01  2.303374485650E+01  2.331014979478E+01
  2.358987159231E+01  2.387295005142E+01  2.415942545204E+01  2.444933855746E+01
  2.474273062015E+01  2.503964338759E+01  2.534011910824E+01  2.564420053754E+01
  2.595193094399E+01  2.626335411532E+01  2.657851436471E+01  2.689745653708E+01
  2.722022601553E+01  2.754686872771E+01  2.787743115245E+01  2.821196032628E+01
  2.855050385019E+01  2.889310989639E+01  2.923982721515E+01  2.959070514173E+01
  2.994579360343E+01  3.030514312667E+01  3.066880484419E+01  3.103683050232E+01
  3.140927246835E+01  3.178618373797E+01  3.216761794283E+01  3.255362935814E+01
  3.294427291044E+01  3.333960418536E+01  3.373967943559E+01  3.414455558882E+01
  3.455429025588E+01  3.496894173895E+01  3.538856903982E+01  3.581323186830E+01
  3.624299065072E+01  3.667790653853E+01  3.711804141699E+01  3.756345791399E+01
  3.801421940896E+01  3.847039004187E+01  3.893203472237E+01  3.939921913904E+01
  3.987200976871E+01  4.035047388593E+01  4.083467957256E+01  4.132469572743E+01
  4.182059207616E+01  4.232243918108E+01  4.283030845125E+01  4.334427215266E+01
  4.386440341850E+01  4.439077625952E+01
</grid-data>
</grid>
<valence-charge total-charge="14" is-unscreening-charge="yes"
 rescaled-to-z-pseudo="no">
<radfunc>
<data npts="458">
  1.401943651638E+00  1.402555072494E+00  1.404441970404E+00  1.407566234047E+00
  1.411911900502E+00  1.417629303147E+00  1.424921516133E+00  1.433279242681E+00
  1.442686188764E+00  1.453668976661E+00  1.466064974590E+00  1.479558411994E+00
  1.495893557360E+00  1.512986093900E+00  1.530093873605E+00  1.549840177715E+00
  1.572632666963E+00  1.594290879862E+00  1.618700754586E+00  1.646212466486E+00
  1.677220754530E+00  1.704842056493E+00  1.735238313153E+00  1.768688372880E+00
  1.805498907224E+00  1.846007078395E+00  1.890583418197E+00  1.926928777187E+00
  1.965976815277E+00  2.007927144702E+00  2.052993625249E+00  2.101405239873E+00
  2.153406986684E+00  2.209260776715E+00  2.269246323509E+00  2.333662006357E+00
  2.402825683883E+00  2.477075428415E+00  2.529577215137E+00  2.584610135871E+00
  2.642290022448E+00  2.702736967647E+00  2.766075312173E+00  2.832433599027E+00
  2.901944489448E+00  2.974744633920E+00  3.050974490856E+00  3.130778084691E+00
  3.214302694135E+00  3.301698460265E+00  3.393117903023E+00  3.488715333466E+00
  3.588646147845E+00  3.693065988301E+00  3.802129753600E+00  3.915990441970E+00
  4.034797806799E+00  4.158696804658E+00  4.287825813988E+00  4.422314601798E+00
  4.562282015002E+00  4.707833372671E+00  4.859057535517E+00  5.016023629641E+00
  5.178777402920E+00  5.347337194760E+00  5.521689503310E+00  5.611023741315E+00
  5.701784138934E+00  5.793957826156E+00  5.887528959022E+00  5.982478532504E+00
  6.078784187229E+00  6.176420010286E+00  6.275356330365E+00  6.375559507611E+00
  6.476991718579E+00  6.579610736797E+00  6.683369709503E+00  6.788216931212E+00
  6.894095614874E+00  7.000943661474E+00  7.108693429025E+00  7.217271502044E+00
  7.326598462693E+00  7.436588664896E+00  7.547150012894E+00  7.658183745816E+00
  7.769584229985E+00  7.881238760835E+00  7.993027376450E+00  8.104822684901E+00
  8.216489707681E+00  8.327885741726E+00  8.438860242622E+00  8.549254731774E+00
  8.658902730421E+00  8.767629723547E+00  8.875253156835E+00  8.981582469913E+00
  9.086419169279E+00  9.189556944293E+00  9.290781829743E+00  9.389872418471E+00
  9.486600127563E+00  9.580729521543E+00  9.672018695961E+00  9.760219724614E+00
  9.845079173475E+00  9.926338684201E+00  1.000373562978E+01  1.007700384456E+01
  1.014587443049E+01  1.021007664090E+01  1.026933884267E+01  1.032338955693E+01
  1.037195857779E+01  1.041477816786E+01  1.045158432826E+01  1.048211814028E+01
  1.050612717444E+01  1.052336696185E+01  1.053360252165E+01  1.053660993713E+01
  1.053217797170E+01  1.052010971503E+01  1.050022424803E+01  1.047235831444E+01
  1.043636798527E+01  1.039213030147E+01  1.033954487889E+01  1.027853545886E+01
  1.020905138664E+01  1.013106899955E+01  1.004459290602E+01  9.949657136622E+00
  9.846326148144E+00  9.734695662119E+00  9.614893319842E+00  9.487079136875E+00
  9.351445741316E+00  9.208218381761E+00  9.057654692886E+00  8.900044208831E+00
  8.735707617242E+00  8.564995749648E+00  8.388288306985E+00  8.205992322345E+00
  8.018540366405E+00  7.826388504412E+00  7.630014016967E+00  7.429912900121E+00
  7.226597163343E+00  7.020591946694E+00  6.812432481006E+00  6.602660916872E+00
  6.391823049904E+00  6.180464970821E+00  5.969129669682E+00  5.758353623811E+00
  5.548663398979E+00  5.340572293269E+00  5.134577052629E+00  4.931154686185E+00
  4.730759408562E+00  4.533819735953E+00  4.340735762324E+00  4.151876642054E+00
  3.967578305486E+00  3.788141434350E+00  3.613829724586E+00  3.444868464753E+00
  3.281443458605E+00  3.123700320397E+00  2.971744170724E+00  2.825639758908E+00
  2.685412034858E+00  2.551047188743E+00  2.422494170516E+00  2.299666693332E+00
  2.182446986563E+00  2.070694982824E+00  1.964260450597E+00  1.862984869006E+00
  1.766702801282E+00  1.675243437048E+00  1.588431945144E+00  1.506090740535E+00
  1.428040654107E+00  1.354102006217E+00  1.284095585357E+00  1.217843533740E+00
  1.155170142198E+00  1.095902557218E+00  1.039871403424E+00  9.869113250722E-01
  9.368614504935E-01  8.895657835776E-01  8.448735266023E-01  8.026393388088E-01
  7.627235352004E-01  7.249922300627E-01  6.893174296918E-01  6.555770787628E-01
  6.236550646878E-01  5.934411842017E-01  5.648310762778E-01  5.377261253167E-01
  5.120333383801E-01  4.876652000521E-01  4.645395083226E-01  4.425791946136E-01
  4.217121310345E-01  4.018709274928E-01  3.829927212648E-01  3.650189613355E-01
  3.478951896246E-01  3.315708210090E-01  3.159989238546E-01  3.011360025791E-01
  2.869417835841E-01  2.733790057229E-01  2.604132163047E-01  2.480125734808E-01
  2.361476557177E-01  2.247912789236E-01  2.139183216756E-01  2.035055588784E-01
  1.935315040843E-01  1.839762606098E-01  1.748213814993E-01  1.660497383149E-01
  1.576453986607E-01  1.495935122964E-01  1.418802056419E-01  1.344924844342E-01
  1.274181442614E-01  1.206456886679E-01  1.141642545053E-01  1.079635441795E-01
  1.020337644383E-01  9.636557132844E-02  9.095002095219E-02  8.577852564746E-02
  8.084281522148E-02  7.613490287045E-02  7.164705542584E-02  6.737176757694E-02
  6.330173973066E-02  5.942985918144E-02  5.574918427841E-02  5.225293129091E-02
  4.893446368891E-02  4.578728357050E-02  4.280502498445E-02  3.998144891258E-02
  3.731043968848E-02  3.478600265540E-02  3.240226286783E-02  3.015346466681E-02
  2.803397196941E-02  2.603826912804E-02  2.416096222871E-02  2.239678071041E-02
  2.074057920031E-02  1.918733947108E-02  1.773217243785E-02  1.637032012276E-02
  1.509715752471E-02  1.390819434110E-02  1.279907649683E-02  1.176558744357E-02
  1.080364919953E-02  9.909323106629E-03  9.078810287862E-03  8.308451793360E-03
  7.594728428323E-03  6.934260260677E-03  6.323805810188E-03  5.760260924297E-03
  5.240657349061E-03  4.762161006269E-03  4.322069990117E-03  3.917812298799E-03
  3.546943318000E-03  3.207143074584E-03  2.896213279817E-03  2.612074182221E-03
  2.352761250653E-03  2.116421708517E-03  1.901310940055E-03  1.705788789580E-03
  1.528315774174E-03  1.367449229990E-03  1.221839411632E-03  1.090225563434E-03
  9.714319806105E-04  8.643640773257E-04  7.680044777743E-04  6.814091452725E-04
  6.037035632760E-04  5.340789811076E-04  4.717887359477E-04  4.161446616626E-04
  3.665135934970E-04  3.223139768659E-04  2.830125872022E-04  2.481213666038E-04
  2.171943820167E-04  1.898249086435E-04  1.656426412662E-04  1.443110352238E-04
  1.255247779070E-04  1.090073908047E-04  9.450896138099E-05  8.180400336441E-05
  7.068944340844E-05  6.098273151784E-05  5.252007214446E-05  4.515477242614E-05
  3.875570367753E-05  3.320587193780E-05  2.840109313492E-05  2.424876823684E-05
  2.066675362250E-05  1.758232181696E-05  1.493120769146E-05  1.265673522617E-05
  1.070901996803E-05  9.044242383099E-06  7.623987399251E-06  6.414645556790E-06
  5.386871327248E-06  4.515094321726E-06  3.777079285316E-06  3.153530960707E-06
  2.627740098906E-06  2.185267095320E-06  1.813659932886E-06  1.502203318085E-06
  1.241696098748E-06  1.024254252621E-06  8.431369313694E-07  6.925932346551E-07
  5.677275721928E-07  4.643816473136E-07  3.790312629909E-07  3.086963099562E-07
  2.508624461690E-07  2.034131173180E-07  1.645706991660E-07  1.328456644670E-07
  1.069927900347E-07  8.597352355405E-08  6.892372520273E-08  5.512608643501E-08
  4.398660776314E-08  3.501458947610E-08  2.780565439712E-08  2.202738045119E-08
  1.740717344835E-08  1.372205753629E-08  1.079010268330E-08  8.463245749168E-09
  6.621294603214E-09  5.166933750339E-09  4.021575404141E-09  3.121922251708E-09
  2.417127618036E-09  1.866455663869E-09  1.437358921073E-09  1.103903142573E-09
  8.454803552289E-10  6.457603673926E-10  4.918389914485E-10  3.735480686840E-10
  2.828981845204E-10  2.136298743968E-10  1.608532667593E-10  1.207595975299E-10
  9.039095485361E-11  6.745705671428E-11  5.018989933288E-11  3.722880369713E-11
  2.752978518048E-11  2.029432348484E-11  1.491355692286E-11  1.092470033309E-11
  7.977118582403E-12  5.806002107447E-12  4.212007899169E-12  3.045566054875E-12
  2.194822994731E-12  1.576409731200E-12  1.128397205143E-12  8.049389394472E-13
  5.722109260839E-13  4.053453449137E-13  2.861229805552E-13  2.012427524805E-13
  1.410287860835E-13  9.846730090873E-14  2.674019728206E-14  1.814136705870E-14
  1.225397404919E-14  8.240673977763E-15  5.517017335253E-15  3.676872157722E-15
  2.439280350600E-15  1.610757129857E-15  1.058667120038E-15  6.925089178034E-16
  4.508199906054E-16  2.920571052711E-16  1.882755234713E-16  1.207690863630E-16
  7.707749096719E-17  4.894213998831E-17  3.091685764529E-17  1.942843545026E-17
  1.214459850865E-17  7.550987921249E-18  4.669514903197E-18  2.871831080497E-18
  1.756453145664E-18  1.068257304225E-18  6.460223131202E-19  3.884381522805E-19
  2.322036084074E-19  1.379934332882E-19  8.151912838697E-20  4.786754960395E-20
  2.793649769966E-20  1.620391552069E-20  9.340131641969E-21  5.349810739064E-21
  3.044690946252E-21  1.721606812142E-21  9.671122045067E-22  5.396816514728E-22
  2.991449529435E-22  1.646925117614E-22  9.004894532843E-23  4.889449798891E-23
  2.636218452583E-23  1.411255237216E-23  7.500593082186E-24  0.000000000000E+00
  0.000000000000E+00  0.000000000000E+00  0.000000000000E+00  0.000000000000E+00
  0.000000000000E+00  0.000000000000E+00  0.000000000000E+00  0.000000000000E+00
  0.000000000000E+00  0.000000000000E+00
</data>
</radfunc>
</valence-charge>
<pseudocore-charge matching-radius="0.941861838399"
 number-of-continuous-derivatives="4">
<annotation model-charge-form="Teter function with specified parameters" />
<radfunc>
<data npts="291">
  5.247649267922E+01  5.247395754027E+01  5.246613477418E+01  5.245318513150E+01
  5.243517923778E+01  5.241150081150E+01  5.238131868087E+01  5.234675161501E+01
  5.230787708418E+01  5.226253309067E+01  5.221140952453E+01  5.215582591225E+01
  5.208862792981E+01  5.201842080869E+01  5.194825936649E+01  5.186741057640E+01
  5.177426601312E+01  5.168593037537E+01  5.158657242236E+01  5.147484090991E+01
  5.134922542281E+01  5.123760957009E+01  5.111508003680E+01  5.098059855164E+01
  5.083303412521E+01  5.067115605862E+01  5.049362671048E+01  5.034933959163E+01
  5.019477718544E+01  5.002924196364E+01  4.985199430749E+01  4.966225079740E+01
  4.945918257575E+01  4.924191381505E+01  4.900952032914E+01  4.876102837178E+01
  4.849541367360E+01  4.821160077656E+01  4.801172766899E+01  4.780292005635E+01
  4.758482125196E+01  4.735706461842E+01  4.711927375275E+01  4.687106273645E+01
  4.661203645765E+01  4.634179101308E+01  4.605991419804E+01  4.576598609319E+01
  4.545957975739E+01  4.514026203665E+01  4.480759449936E+01  4.446113450906E+01
  4.410043644596E+01  4.372505308921E+01  4.333453717233E+01  4.292844312431E+01
  4.250632900934E+01  4.206775867819E+01  4.161230414425E+01  4.113954819699E+01
  4.064908726528E+01  4.014053454249E+01  3.961352338404E+01  3.906771098728E+01
  3.850278236166E+01  3.791845459532E+01  3.731448142159E+01  3.700506206043E+01
  3.669065808607E+01  3.637125123783E+01  3.604682651105E+01  3.571737233416E+01
  3.538288075008E+01  3.504334760152E+01  3.469877272036E+01  3.434916012057E+01
  3.399451819472E+01  3.363485991358E+01  3.327020302869E+01  3.290057027745E+01
  3.252598959041E+01  3.214649430040E+01  3.176212335291E+01  3.137292151740E+01
  3.097893959888E+01  3.058023464924E+01  3.017687017773E+01  2.976891635980E+01
  2.935645024371E+01  2.893955595407E+01  2.851832489141E+01  2.809285592709E+01
  2.766325559231E+01  2.722963826057E+01  2.679212632219E+01  2.635085035007E+01
  2.590594925525E+01  2.545757043128E+01  2.500586988595E+01  2.455101235918E+01
  2.409317142550E+01  2.363252957993E+01  2.316927830548E+01  2.270361812104E+01
  2.223575860786E+01  2.176591841309E+01  2.129432522886E+01  2.082121574497E+01
  2.034683557390E+01  1.987143914608E+01  1.939528957398E+01  1.891865848339E+01
  1.844182580999E+01  1.796507955994E+01  1.748871553270E+01  1.701303700467E+01
  1.653835437235E+01  1.606498475350E+01  1.559325154530E+01  1.512348393835E+01
  1.465601638567E+01  1.419118802588E+01  1.372934206019E+01  1.327082508266E+01
  1.281598636392E+01  1.236517708832E+01  1.191874954518E+01  1.147705627481E+01
  1.104044917055E+01  1.060927853820E+01  1.018389211495E+01  9.764634049816E+00
  9.351843848605E+00  8.945855286321E+00  8.546995290830E+00  8.155582801790E+00
  7.771927609471E+00  7.396329178554E+00  7.029075462472E+00  6.670441714388E+00
  6.320689301349E+00  5.980064528661E+00  5.648797481954E+00  5.327100894852E+00
  5.015169050537E+00  4.713176725860E+00  4.421278186923E+00  4.139606245324E+00
  3.868271384401E+00  3.607360964913E+00  3.356938519601E+00  3.117043145970E+00
  2.887689006454E+00  2.668864944785E+00  2.460534227015E+00  2.262634415003E+00
  2.075077379573E+00  1.897749459654E+00  1.730511772802E+00  1.573200681352E+00
  1.425628417243E+00  1.287583867153E+00  1.158833518098E+00  1.039122561992E+00
  9.281761559804E-01  8.257008334834E-01  7.313860590504E-01  6.449059181402E-01
  5.659209310070E-01  4.940799779080E-01  4.290223209318E-01  3.703797059057E-01
  3.177785261104E-01  2.708420279495E-01  2.291925373329E-01  1.924536843753E-01
  1.602526031272E-01  1.322220824781E-01  1.080026441440E-01  8.724452379905E-02
  6.960953196504E-02  5.477277224910E-02  4.242419593680E-02  3.226997380308E-02
  2.403366829386E-02  1.745719193788E-02  1.230154094182E-02  8.347296359502E-03
  5.394888954235E-03  3.264627824453E-03  1.796496958122E-03  8.497280322160E-04
  3.021618810284E-04  4.941501685565E-05  3.871289347729E-06  9.352210585732E-05
  2.606814971657E-04  4.606046004707E-04  6.600397546806E-04  8.357452870648E-04
  9.730021594849E-04  1.064152904050E-03  1.107195705651E-03  1.104460104825E-03
  1.061387651628E-03  9.854370234085E-04  8.851287402559E-04  7.692398128601E-04
  6.461536033610E-04  5.233650536984E-04  4.071364321232E-04  3.022940640986E-04
  2.121523396860E-04  1.385478005680E-04  8.196345517712E-05  4.172176395384E-05
  1.622404928000E-05  3.214437276692E-06  4.779900609147E-08  3.943439707916E-06
  1.220934728079E-05  2.242546959679E-05  3.257852162312E-05  4.114498038188E-05
  4.712295181458E-05  5.001723952777E-05  4.978498724937E-05  4.675152275398E-05
  4.150737598520E-05  3.479782112787E-05  2.741571890282E-05  2.010700377061E-05
  1.349603251707E-05  8.035404084347E-06  3.982032326481E-06  1.398476287860E-06
  1.760697272407E-07  7.447073920844E-08  7.710425812521E-07  1.913070364483E-06
  3.166219531624E-06  4.253766221478E-06  4.982811352926E-06  5.255702204756E-06
  5.066964906634E-06  4.487933202429E-06  3.642708745797E-06  2.679933804784E-06
  1.745012253222E-06  9.568912914661E-07  3.924240349009E-07  7.986329827420E-08
  0.000000000000E+00  0.000000000000E+00  0.000000000000E+00  0.000000000000E+00
  0.000000000000E+00  0.000000000000E+00  0.000000000000E+00  0.000000000000E+00
  0.000000000000E+00  0.000000000000E+00  0.000000000000E+00  0.000000000000E+00
  0.000000000000E+00  0.000000000000E+00  0.000000000000E+00  0.000000000000E+00
  0.000000000000E+00  0.000000000000E+00  0.000000000000E+00  0.000000000000E+00
  0.000000000000E+00  0.000000000000E+00  0.000000000000E+00  0.000000000000E+00
  0.000000000000E+00  0.000000000000E+00  0.000000000000E+00  0.000000000000E+00
  0.000000000000E+00  0.000000000000E+00  0.000000000000E+00  0.000000000000E+00
  0.000000000000E+00  0.000000000000E+00  0.000000000000E+00  0.000000000000E+00
  0.000000000000E+00  0.000000000000E+00  0.000000000000E+00
</data>
</radfunc>
</pseudocore-charge>
<semilocal-potentials set="scalar_relativistic">
<slps n="5" l="s" rc="1.61105461578" eref="-2.91415169191">
<radfunc>
<data npts="291">
 -3.057591450100E+00 -3.059515859333E+00 -3.065451913500E+00 -3.075271204876E+00
 -3.088909739322E+00 -3.106818857861E+00 -3.129604208055E+00 -3.155641076009E+00
 -3.184847704611E+00 -3.218815292867E+00 -3.256984382146E+00 -3.298330159502E+00
 -3.348103366335E+00 -3.399859233779E+00 -3.451331789814E+00 -3.510337662052E+00
 -3.577912739998E+00 -3.641602160859E+00 -3.712781122122E+00 -3.792251343478E+00
 -3.880880102642E+00 -3.959001975206E+00 -4.044088365400E+00 -4.136671617161E+00
 -4.237307346006E+00 -4.346571819070E+00 -4.465058409311E+00 -4.560339521630E+00
 -4.661407120037E+00 -4.768520082488E+00 -4.881935873658E+00 -5.001908365616E+00
 -5.128685373514E+00 -5.262505895746E+00 -5.403597051964E+00 -5.552170717135E+00
 -5.708419855632E+00 -5.872514566083E+00 -5.986341559793E+00 -6.103754451784E+00
 -6.224781168884E+00 -6.349442166590E+00 -6.477749787972E+00 -6.609707613095E+00
 -6.745309802672E+00 -6.884540440047E+00 -7.027372875900E+00 -7.173769080418E+00
 -7.323679007905E+00 -7.477039979051E+00 -7.633776086195E+00 -7.793797627053E+00
 -7.957000572359E+00 -8.123266072814E+00 -8.292460010575E+00 -8.464432600285E+00
 -8.639018044281E+00 -8.816034246214E+00 -8.995282586792E+00 -9.176547764774E+00
 -9.359597705665E+00 -9.544183539892E+00 -9.730039651461E+00 -9.916883797350E+00
 -1.010441729715E+01 -1.029232529176E+01 -1.048027706918E+01 -1.057416178900E+01
 -1.066792645509E+01 -1.076152545390E+01 -1.085491226527E+01 -1.094803947970E+01
 -1.104085881651E+01 -1.113332114273E+01 -1.122537649288E+01 -1.131697408938E+01
 -1.140806236383E+01 -1.149858897892E+01 -1.158850085107E+01 -1.167774417375E+01
 -1.176626444150E+01 -1.185400647454E+01 -1.194091444414E+01 -1.202693189861E+01
 -1.211200178988E+01 -1.219606650090E+01 -1.227906787361E+01 -1.236094723766E+01
 -1.244164543988E+01 -1.252110287446E+01 -1.259925951399E+01 -1.267605494130E+01
 -1.275142838213E+01 -1.282531873885E+01 -1.289766462498E+01 -1.296840440094E+01
 -1.303747621068E+01 -1.310481801964E+01 -1.317036765375E+01 -1.323406283979E+01
 -1.329584124699E+01 -1.335564053005E+01 -1.341339837350E+01 -1.346905253754E+01
 -1.352254090531E+01 -1.357380153166E+01 -1.362277269343E+01 -1.366939294109E+01
 -1.371360115197E+01 -1.375533658471E+01 -1.379453893515E+01 -1.383114839328E+01
 -1.386510570137E+01 -1.389635221291E+01 -1.392482995230E+01 -1.395048167497E+01
 -1.397325092770E+01 -1.399308210885E+01 -1.400992052807E+01 -1.402371246525E+01
 -1.403440522811E+01 -1.404194720818E+01 -1.404628793452E+01 -1.404737812481E+01
 -1.404516973327E+01 -1.403961599484E+01 -1.403067146530E+01 -1.401829205668E+01
 -1.400243506778E+01 -1.398305920934E+01 -1.396012462377E+01 -1.393359289943E+01
 -1.390342707961E+01 -1.386959166670E+01 -1.383205262225E+01 -1.379077736428E+01
 -1.374573476316E+01 -1.369689513863E+01 -1.364423026042E+01 -1.358771335650E+01
 -1.352731913307E+01 -1.346302381216E+01 -1.339480519331E+01 -1.332264274740E+01
 -1.324651775206E+01 -1.316641347980E+01 -1.308231545157E+01 -1.299421177064E+01