
     Program PWSCF v.7.1 starts on  9Jun2023 at 21:46:43 

     This program is part of the open-source Quantum ESPRESSO suite
     for quantum simulation of materials; please cite
         "P. Giannozzi et al., J. Phys.:Condens. Matter 21 395502 (2009);
         "P. Giannozzi et al., J. Phys.:Condens. Matter 29 465901 (2017);
         "P. Giannozzi et al., J. Chem. Phys. 152 154105 (2020);
          URL http://www.quantum-espresso.org", 
     in publications or presentations arising from this work. More details at
     http://www.quantum-espresso.org/quote

     Parallel version (MPI & OpenMP), running on     144 processor cores
     Number of MPI processes:                72
     Threads/MPI process:                     2

     MPI processes distributed on     1 nodes
     497842 MiB available memory on the printing compute node when the environment starts

     Reading input from wfn.in

     Current dimensions of program PWSCF are:
     Max number of different atomic species (ntypx) = 10
     Max number of k-points (npk) =  40000
     Max angular momentum in pseudopotentials (lmaxx) =  4

     Atomic positions and unit cell read from directory:
     ./WS2.save/
     Atomic positions from file used, from input discarded


     IMPORTANT: XC functional enforced from input :
     Exchange-correlation= XC-001L-012L
                           (   1  12   0   0   0   0   0)
     Any further DFT definition will be discarded
     Please, verify this is what you really want


     K-points division:     npool     =      36
     R & G space division:  proc/nbgrp/npool/nimage =       2
     Subspace diagonalization in iterative solution of the eigenvalue problem:
     a serial algorithm will be used


     Parallelization info
     --------------------
     sticks:   dense  smooth     PW     G-vecs:    dense   smooth      PW
     Min          99      99     36                 8831     8831    2002
     Max         100     100     37                 8842     8842    2017
     Sum         199     199     73                17673    17673    4019

     Using Slab Decomposition



     bravais-lattice index     =            0
     lattice parameter (alat)  =       5.9526  a.u.
     unit-cell volume          =    1449.7341 (a.u.)^3
     number of atoms/cell      =            3
     number of atomic types    =            2
     number of electrons       =        26.00
     number of Kohn-Sham states=           20
     kinetic-energy cutoff     =      20.0000  Ry
     charge density cutoff     =      80.0000  Ry
     Exchange-correlation= XC-001L-012L
                           (   1  12   0   0   0   0   0)

     celldm(1)=   5.952637  celldm(2)=   0.000000  celldm(3)=   0.000000
     celldm(4)=   0.000000  celldm(5)=   0.000000  celldm(6)=   0.000000

     crystal axes: (cart. coord. in units of alat)
               a(1) = (   1.000000   0.000000   0.000000 )  
               a(2) = (   0.500000   0.866025   0.000000 )  
               a(3) = (   0.000000   0.000000   7.936508 )  

     reciprocal axes: (cart. coord. in units 2 pi/alat)
               b(1) = (  1.000000 -0.577350  0.000000 )  
               b(2) = (  0.000000  1.154701  0.000000 )  
               b(3) = (  0.000000  0.000000  0.126000 )  


     PseudoPot. # 1 for W  read from file:
     /global/u2/w/wkim94/pseudo/pseudodojo/nc-sr-04_pw_standard_upf/W.upf
     MD5 check sum: 8a49e2019fff0b057ab5fe5c9a0ca531
     Pseudo is Norm-conserving + core correction, Zval = 14.0
     Generated using ONCVPSP code by D. R. Hamann
     Using radial grid of 1380 points,  8 beta functions with: 
                l(1) =   0
                l(2) =   0
                l(3) =   1
                l(4) =   1
                l(5) =   2
                l(6) =   2
                l(7) =   3
                l(8) =   3

     PseudoPot. # 2 for S  read from file:
     /global/u2/w/wkim94/pseudo/pseudodojo/nc-sr-04_pw_standard_upf/S.upf
     MD5 check sum: cb156da9049275a86b4f507c9016d0ed
     Pseudo is Norm-conserving + core correction, Zval =  6.0
     Generated using ONCVPSP code by D. R. Hamann
     Using radial grid of 1132 points,  6 beta functions with: 
                l(1) =   0
                l(2) =   0
                l(3) =   1
                l(4) =   1
                l(5) =   2
                l(6) =   2

     atomic species   valence    mass     pseudopotential
        W             14.00   183.84000     W ( 1.00)
        S              6.00    78.96000     S ( 1.00)

     No symmetry found


                                    s                        frac. trans.

      isym =  1     identity                                     

 cryst.   s( 1) = (     1          0          0      )
                  (     0          1          0      )
                  (     0          0          1      )

 cart.    s( 1) = (  1.0000000  0.0000000  0.0000000 )
                  (  0.0000000  1.0000000  0.0000000 )
                  (  0.0000000  0.0000000  1.0000000 )


   Cartesian axes

     site n.     atom                  positions (alat units)
         1           W   tau(   1) = (   0.5000000   0.2886751   3.9682540  )
         2           S   tau(   2) = (   1.0000000   0.5773503   3.4603175  )
         3           S   tau(   3) = (   1.0000000   0.5773503   4.4761905  )

   Crystallographic axes

     site n.     atom                  positions (cryst. coord.)
         1           W   tau(   1) = (  0.3333333  0.3333333  0.5000000  )
         2           S   tau(   2) = (  0.6666667  0.6666667  0.4360000  )
         3           S   tau(   3) = (  0.6666667  0.6666667  0.5640000  )

     number of k points=    36
                       cart. coord. in units 2pi/alat
        k(    1) = (   0.0000000   0.0000000   0.0000000), wk =   0.0555556
        k(    2) = (   0.0000000   0.1924501   0.0000000), wk =   0.0555556
        k(    3) = (   0.0000000   0.3849002   0.0000000), wk =   0.0555556
        k(    4) = (   0.0000000   0.5773503   0.0000000), wk =   0.0555556
        k(    5) = (   0.0000000   0.7698004   0.0000000), wk =   0.0555556
        k(    6) = (   0.0000000   0.9622504   0.0000000), wk =   0.0555556
        k(    7) = (   0.1666667  -0.0962250   0.0000000), wk =   0.0555556
        k(    8) = (   0.1666667   0.0962250   0.0000000), wk =   0.0555556
        k(    9) = (   0.1666667   0.2886751   0.0000000), wk =   0.0555556
        k(   10) = (   0.1666667   0.4811252   0.0000000), wk =   0.0555556
        k(   11) = (   0.1666667   0.6735753   0.0000000), wk =   0.0555556
        k(   12) = (   0.1666667   0.8660254   0.0000000), wk =   0.0555556
        k(   13) = (   0.3333333  -0.1924501   0.0000000), wk =   0.0555556
        k(   14) = (   0.3333333   0.0000000   0.0000000), wk =   0.0555556
        k(   15) = (   0.3333333   0.1924501   0.0000000), wk =   0.0555556
        k(   16) = (   0.3333333   0.3849002   0.0000000), wk =   0.0555556
        k(   17) = (   0.3333333   0.5773503   0.0000000), wk =   0.0555556
        k(   18) = (   0.3333333   0.7698004   0.0000000), wk =   0.0555556
        k(   19) = (   0.5000000  -0.2886751   0.0000000), wk =   0.0555556
        k(   20) = (   0.5000000  -0.0962250   0.0000000), wk =   0.0555556
        k(   21) = (   0.5000000   0.0962250   0.0000000), wk =   0.0555556
        k(   22) = (   0.5000000   0.2886751   0.0000000), wk =   0.0555556
        k(   23) = (   0.5000000   0.4811252   0.0000000), wk =   0.0555556
        k(   24) = (   0.5000000   0.6735753   0.0000000), wk =   0.0555556
        k(   25) = (   0.6666667  -0.3849002   0.0000000), wk =   0.0555556
        k(   26) = (   0.6666667  -0.1924501   0.0000000), wk =   0.0555556
        k(   27) = (   0.6666667  -0.0000000   0.0000000), wk =   0.0555556
        k(   28) = (   0.6666667   0.1924501   0.0000000), wk =   0.0555556
        k(   29) = (   0.6666667   0.3849002   0.0000000), wk =   0.0555556
        k(   30) = (   0.6666667   0.5773503   0.0000000), wk =   0.0555556
        k(   31) = (   0.8333333  -0.4811252   0.0000000), wk =   0.0555556
        k(   32) = (   0.8333333  -0.2886751   0.0000000), wk =   0.0555556
        k(   33) = (   0.8333333  -0.0962250   0.0000000), wk =   0.0555556
        k(   34) = (   0.8333333   0.0962250   0.0000000), wk =   0.0555556
        k(   35) = (   0.8333333   0.2886751   0.0000000), wk =   0.0555556
        k(   36) = (   0.8333333   0.4811252   0.0000000), wk =   0.0555556

                       cryst. coord.
        k(    1) = (   0.0000000   0.0000000   0.0000000), wk =   0.0555556
        k(    2) = (   0.0000000   0.1666667   0.0000000), wk =   0.0555556
        k(    3) = (   0.0000000   0.3333333   0.0000000), wk =   0.0555556
        k(    4) = (   0.0000000   0.5000000   0.0000000), wk =   0.0555556
        k(    5) = (   0.0000000   0.6666667   0.0000000), wk =   0.0555556
        k(    6) = (   0.0000000   0.8333333   0.0000000), wk =   0.0555556
        k(    7) = (   0.1666667  -0.0000000   0.0000000), wk =   0.0555556
        k(    8) = (   0.1666667   0.1666667   0.0000000), wk =   0.0555556
        k(    9) = (   0.1666667   0.3333333   0.0000000), wk =   0.0555556
        k(   10) = (   0.1666667   0.5000000   0.0000000), wk =   0.0555556
        k(   11) = (   0.1666667   0.6666667   0.0000000), wk =   0.0555556
        k(   12) = (   0.1666667   0.8333333   0.0000000), wk =   0.0555556
        k(   13) = (   0.3333333   0.0000000   0.0000000), wk =   0.0555556
        k(   14) = (   0.3333333   0.1666667   0.0000000), wk =   0.0555556
        k(   15) = (   0.3333333   0.3333333   0.0000000), wk =   0.0555556
        k(   16) = (   0.3333333   0.5000000   0.0000000), wk =   0.0555556
        k(   17) = (   0.3333333   0.6666667   0.0000000), wk =   0.0555556
        k(   18) = (   0.3333333   0.8333333   0.0000000), wk =   0.0555556
        k(   19) = (   0.5000000   0.0000000   0.0000000), wk =   0.0555556
        k(   20) = (   0.5000000   0.1666667   0.0000000), wk =   0.0555556
        k(   21) = (   0.5000000   0.3333333   0.0000000), wk =   0.0555556
        k(   22) = (   0.5000000   0.5000000   0.0000000), wk =   0.0555556
        k(   23) = (   0.5000000   0.6666667   0.0000000), wk =   0.0555556
        k(   24) = (   0.5000000   0.8333333   0.0000000), wk =   0.0555556
        k(   25) = (   0.6666667   0.0000000   0.0000000), wk =   0.0555556
        k(   26) = (   0.6666667   0.1666667   0.0000000), wk =   0.0555556
        k(   27) = (   0.6666667   0.3333333   0.0000000), wk =   0.0555556
        k(   28) = (   0.6666667   0.5000000   0.0000000), wk =   0.0555556
        k(   29) = (   0.6666667   0.6666667   0.0000000), wk =   0.0555556
        k(   30) = (   0.6666667   0.8333333   0.0000000), wk =   0.0555556
        k(   31) = (   0.8333333   0.0000000   0.0000000), wk =   0.0555556
        k(   32) = (   0.8333333   0.1666667   0.0000000), wk =   0.0555556
        k(   33) = (   0.8333333   0.3333333   0.0000000), wk =   0.0555556
        k(   34) = (   0.8333333   0.5000000   0.0000000), wk =   0.0555556
        k(   35) = (   0.8333333   0.6666667   0.0000000), wk =   0.0555556
        k(   36) = (   0.8333333   0.8333333   0.0000000), wk =   0.0555556

     Dense  grid:    17673 G-vectors     FFT dimensions: (  18,  18, 135)

     Dynamical RAM for                 wfc:       0.33 MB

     Dynamical RAM for     wfc (w. buffer):       0.33 MB

     Dynamical RAM for           str. fact:       0.27 MB

     Dynamical RAM for           local pot:       0.00 MB

     Dynamical RAM for          nlocal pot:       1.14 MB

     Dynamical RAM for                qrad:       3.45 MB

     Dynamical RAM for          rho,v,vnew:       0.91 MB

     Dynamical RAM for           G-vectors:       0.57 MB

     Dynamical RAM for          h,s,v(r/c):       0.29 MB

     Dynamical RAM for          <psi|beta>:       0.02 MB

     Dynamical RAM for                 psi:       1.34 MB

     Dynamical RAM for                hpsi:       1.34 MB

     Dynamical RAM for      wfcinit/wfcrot:       0.68 MB

     Estimated static dynamical RAM per process >       7.92 MB

     Estimated max dynamical RAM per process >      10.91 MB

     Estimated total dynamical RAM >     785.22 MB

     WARNING: libxc functional with ID   12 depends
      on external parameters: check the user_guide of
      QE if you need to modify them or to check their
      default values.

     The potential is recalculated from file :
     ./WS2.save/charge-density

     Starting wfcs are   18 randomized atomic wfcs +    2 random wfcs

     Band Structure Calculation
     Davidson diagonalization with overlap

     Computing kpt #:     1  of     1 on this pool
     total cpu time spent up to now is        0.6 secs

     ethr =  3.85E-09,  avg # of iterations = 18.8

     total cpu time spent up to now is        0.6 secs

     End of band structure calculation

          k = 0.0000 0.0000 0.0000 (  2245 PWs)   bands (ev):

   -74.4549 -40.5699 -40.3632 -40.3632 -16.3362 -14.8306  -8.1058  -4.5505
    -4.5505  -4.0892  -3.2805  -3.2805  -2.1076   1.1227   1.1227   1.1925
     1.1925   3.4606   3.7059   3.9648

          k = 0.0000 0.1925 0.0000 (  2193 PWs)   bands (ev):

   -74.3609 -40.5528 -40.4555 -40.3839 -15.8647 -14.6239  -7.5963  -5.4968
    -5.0256  -4.0830  -3.9041  -3.2278  -2.3256   0.4309   0.8900   1.0213
     1.8271   4.1533   4.2542   4.6584

          k = 0.0000 0.3849 0.0000 (  2186 PWs)   bands (ev):

   -74.3514 -40.6350 -40.5203 -40.4283 -14.8062 -14.2044  -7.5282  -6.3808
    -6.1924  -4.7945  -3.8161  -3.2470  -3.0911   0.6789   0.7849   1.8110
     2.6390   5.1093   5.5128   5.6746

          k = 0.0000 0.5774 0.0000 (  2208 PWs)   bands (ev):

   -74.3941 -40.7234 -40.5044 -40.4503 -14.1390 -13.9511  -8.2513  -7.0556
    -6.2349  -5.1436  -4.0462  -2.9276  -2.7841   1.1281   1.4730   2.1705
     2.8637   3.7065   5.8393   6.0438

          k = 0.0000 0.7698 0.0000 (  2186 PWs)   bands (ev):

   -74.3514 -40.6350 -40.5203 -40.4283 -14.8062 -14.2044  -7.5282  -6.3808
    -6.1924  -4.7945  -3.8161  -3.2470  -3.0911   0.6789   0.7849   1.8110
     2.6390   5.1093   5.5128   5.6746

          k = 0.0000 0.9623 0.0000 (  2193 PWs)   bands (ev):

   -74.3609 -40.5528 -40.4555 -40.3839 -15.8647 -14.6239  -7.5963  -5.4968
    -5.0256  -4.0830  -3.9041  -3.2278  -2.3256   0.4309   0.8900   1.0213
     1.8271   4.1533   4.2542   4.6584

          k = 0.1667-0.0962 0.0000 (  2193 PWs)   bands (ev):

   -74.3609 -40.5528 -40.4555 -40.3839 -15.8647 -14.6239  -7.5963  -5.4968
    -5.0256  -4.0830  -3.9041  -3.2278  -2.3256   0.4309   0.8900   1.0213
     1.8271   4.1533   4.2542   4.6584

          k = 0.1667 0.0962 0.0000 (  2193 PWs)   bands (ev):

   -74.3609 -40.5528 -40.4555 -40.3839 -15.8647 -14.6239  -7.5963  -5.4968
    -5.0256  -4.0830  -3.9041  -3.2278  -2.3256   0.4309   0.8900   1.0213
     1.8271   4.1533   4.2542   4.6584

          k = 0.1667 0.2887 0.0000 (  2186 PWs)   bands (ev):

   -74.3510 -40.5744 -40.5287 -40.4338 -15.0917 -14.3189  -7.1097  -6.2036
    -5.7827  -5.2684  -3.9877  -3.1904  -2.7019   0.0799   0.9957   1.1701
     2.7065   5.1720   5.2689   5.7549

          k = 0.1667 0.4811 0.0000 (  2187 PWs)   bands (ev):

   -74.3523 -40.6779 -40.5036 -40.4945 -14.1534 -13.9267  -7.7105  -7.0888
    -5.9965  -5.3402  -4.5379  -3.8586  -2.4189   0.7117   1.5984   1.7658
     3.0064   4.7198   6.4937   6.7166

          k = 0.1667 0.6736 0.0000 (  2187 PWs)   bands (ev):

   -74.3523 -40.6779 -40.5036 -40.4945 -14.1534 -13.9267  -7.7105  -7.0888
    -5.9965  -5.3402  -4.5379  -3.8586  -2.4189   0.7117   1.5984   1.7658
     3.0064   4.7198   6.4937   6.7166

          k = 0.1667 0.8660 0.0000 (  2186 PWs)   bands (ev):

   -74.3510 -40.5744 -40.5287 -40.4338 -15.0917 -14.3189  -7.1097  -6.2036
    -5.7827  -5.2684  -3.9877  -3.1904  -2.7019   0.0799   0.9957   1.1701
     2.7065   5.1720   5.2689   5.7549

          k = 0.3333-0.1925 0.0000 (  2186 PWs)   bands (ev):

   -74.3514 -40.6350 -40.5203 -40.4283 -14.8062 -14.2044  -7.5282  -6.3808
    -6.1924  -4.7945  -3.8161  -3.2470  -3.0911   0.6789   0.7849   1.8110
     2.6390   5.1093   5.5128   5.6746

          k = 0.3333 0.0000 0.0000 (  2186 PWs)   bands (ev):

   -74.3510 -40.5744 -40.5287 -40.4338 -15.0917 -14.3189  -7.1097  -6.2036
    -5.7827  -5.2684  -3.9877  -3.1904  -2.7019   0.0799   0.9957   1.1701
     2.7065   5.1720   5.2689   5.7549

          k = 0.3333 0.1925 0.0000 (  2186 PWs)   bands (ev):

   -74.3514 -40.6350 -40.5203 -40.4283 -14.8062 -14.2044  -7.5282  -6.3808
    -6.1924  -4.7945  -3.8161  -3.2470  -3.0911   0.6789   0.7849   1.8110
     2.6390   5.1093   5.5128   5.6746

          k = 0.3333 0.3849 0.0000 (  2187 PWs)   bands (ev):

   -74.3523 -40.6779 -40.5036 -40.4945 -14.1534 -13.9267  -7.7105  -7.0888
    -5.9965  -5.3402  -4.5379  -3.8586  -2.4189   0.7117   1.5984   1.7658
     3.0064   4.7198   6.4937   6.7166

          k = 0.3333 0.5774 0.0000 (  2196 PWs)   bands (ev):

   -74.3722 -40.6306 -40.5995 -40.4958 -13.8144 -13.7397  -7.6271  -7.0798
    -6.3320  -5.6103  -5.1264  -4.2608  -1.8571   0.2377   1.3307   2.1553
     3.7662   4.9772   5.4298   7.5004

          k = 0.3333 0.7698 0.0000 (  2187 PWs)   bands (ev):

   -74.3523 -40.6779 -40.5036 -40.4945 -14.1534 -13.9267  -7.7105  -7.0888
    -5.9965  -5.3402  -4.5379  -3.8586  -2.4189   0.7117   1.5984   1.7658
     3.0064   4.7198   6.4937   6.7166

          k = 0.5000-0.2887 0.0000 (  2208 PWs)   bands (ev):

   -74.3941 -40.7234 -40.5044 -40.4503 -14.1390 -13.9511  -8.2513  -7.0556
    -6.2349  -5.1436  -4.0462  -2.9276  -2.7841   1.1281   1.4730   2.1705
     2.8637   3.7065   5.8393   6.0438

          k = 0.5000-0.0962 0.0000 (  2187 PWs)   bands (ev):

   -74.3523 -40.6779 -40.5036 -40.4945 -14.1534 -13.9267  -7.7105  -7.0888
    -5.9965  -5.3402  -4.5379  -3.8586  -2.4189   0.7117   1.5984   1.7658
     3.0064   4.7198   6.4937   6.7166

          k = 0.5000 0.0962 0.0000 (  2187 PWs)   bands (ev):

   -74.3523 -40.6779 -40.5036 -40.4945 -14.1534 -13.9267  -7.7105  -7.0888
    -5.9965  -5.3402  -4.5379  -3.8586  -2.4189   0.7117   1.5984   1.7658
     3.0064   4.7198   6.4937   6.7166

          k = 0.5000 0.2887 0.0000 (  2208 PWs)   bands (ev):

   -74.3941 -40.7234 -40.5044 -40.4503 -14.1390 -13.9511  -8.2513  -7.0556
    -6.2349  -5.1436  -4.0462  -2.9276  -2.7841   1.1281   1.4730   2.1705
     2.8637   3.7065   5.8393   6.0438

          k = 0.5000 0.4811 0.0000 (  2187 PWs)   bands (ev):

   -74.3523 -40.6779 -40.5036 -40.4945 -14.1534 -13.9267  -7.7105  -7.0888
    -5.9965  -5.3402  -4.5379  -3.8586  -2.4189   0.7117   1.5984   1.7658
     3.0064   4.7198   6.4937   6.7166

          k = 0.5000 0.6736 0.0000 (  2187 PWs)   bands (ev):

   -74.3523 -40.6779 -40.5036 -40.4945 -14.1534 -13.9267  -7.7105  -7.0888
    -5.9965  -5.3402  -4.5379  -3.8586  -2.4189   0.7117   1.5984   1.7658
     3.0064   4.7198   6.4937   6.7166

          k = 0.6667-0.3849 0.0000 (  2186 PWs)   bands (ev):

   -74.3514 -40.6350 -40.5203 -40.4283 -14.8062 -14.2044  -7.5282  -6.3808
    -6.1924  -4.7945  -3.8161  -3.2470  -3.0911   0.6789   0.7849   1.8110
     2.6390   5.1093   5.5128   5.6746

          k = 0.6667-0.1925 0.0000 (  2187 PWs)   bands (ev):

   -74.3523 -40.6779 -40.5036 -40.4945 -14.1534 -13.9267  -7.7105  -7.0888
    -5.9965  -5.3402  -4.5379  -3.8586  -2.4189   0.7117   1.5984   1.7658
     3.0064   4.7198   6.4937   6.7166

          k = 0.6667-0.0000 0.0000 (  2196 PWs)   bands (ev):

   -74.3722 -40.6306 -40.5995 -40.4958 -13.8144 -13.7397  -7.6271  -7.0798
    -6.3320  -5.6103  -5.1264  -4.2608  -1.8571   0.2377   1.3307   2.1553
     3.7662   4.9772   5.4298   7.5004

          k = 0.6667 0.1925 0.0000 (  2187 PWs)   bands (ev):

   -74.3523 -40.6779 -40.5036 -40.4945 -14.1534 -13.9267  -7.7105  -7.0888
    -5.9965  -5.3402  -4.5379  -3.8586  -2.4189   0.7117   1.5984   1.7658
     3.0064   4.7198   6.4937   6.7166

          k = 0.6667 0.3849 0.0000 (  2186 PWs)   bands (ev):

   -74.3514 -40.6350 -40.5203 -40.4283 -14.8062 -14.2044  -7.5282  -6.3808
    -6.1924  -4.7945  -3.8161  -3.2470  -3.0911   0.6789   0.7849   1.8110
     2.6390   5.1093   5.5128   5.6746

          k = 0.6667 0.5774 0.0000 (  2186 PWs)   bands (ev):

   -74.3510 -40.5744 -40.5287 -40.4338 -15.0917 -14.3189  -7.1097  -6.2036
    -5.7827  -5.2684  -3.9877  -3.1904  -2.7019   0.0799   0.9957   1.1701
     2.7065   5.1720   5.2689   5.7549

          k = 0.8333-0.4811 0.0000 (  2193 PWs)   bands (ev):

   -74.3609 -40.5528 -40.4555 -40.3839 -15.8647 -14.6239  -7.5963  -5.4968
    -5.0256  -4.0830  -3.9041  -3.2278  -2.3256   0.4309   0.8900   1.0213
     1.8271   4.1533   4.2542   4.6584

          k = 0.8333-0.2887 0.0000 (  2186 PWs)   bands (ev):

   -74.3510 -40.5744 -40.5287 -40.4338 -15.0917 -14.3189  -7.1097  -6.2036
    -5.7827  -5.2684  -3.9877  -3.1904  -2.7019   0.0799   0.9957   1.1701
     2.7065   5.1720   5.2689   5.7549

          k = 0.8333-0.0962 0.0000 (  2187 PWs)   bands (ev):

   -74.3523 -40.6779 -40.5036 -40.4945 -14.1534 -13.9267  -7.7105  -7.0888
    -5.9965  -5.3402  -4.5379  -3.8586  -2.4189   0.7117   1.5984   1.7658
     3.0064   4.7198   6.4937   6.7166

          k = 0.8333 0.0962 0.0000 (  2187 PWs)   bands (ev):

   -74.3523 -40.6779 -40.5036 -40.4945 -14.1534 -13.9267  -7.7105  -7.0888
    -5.9965  -5.3402  -4.5379  -3.8586  -2.4189   0.7117   1.5984   1.7658
     3.0064   4.7198   6.4937   6.7166

          k = 0.8333 0.2887 0.0000 (  2186 PWs)   bands (ev):

   -74.3510 -40.5744 -40.5287 -40.4338 -15.0917 -14.3189  -7.1097  -6.2036
    -5.7827  -5.2684  -3.9877  -3.1904  -2.7019   0.0799   0.9957   1.1701
     2.7065   5.1720   5.2689   5.7549

          k = 0.8333 0.4811 0.0000 (  2193 PWs)   bands (ev):

   -74.3609 -40.5528 -40.4555 -40.3839 -15.8647 -14.6239  -7.5963  -5.4968
    -5.0256  -4.0830  -3.9041  -3.2278  -2.3256   0.4309   0.8900   1.0213
     1.8271   4.1533   4.2542   4.6584

     Writing all to output data dir ./WS2.save/

     init_run     :      0.09s CPU      0.07s WALL (       1 calls)
     electrons    :      0.50s CPU      0.30s WALL (       1 calls)

     Called by init_run:
     wfcinit      :      0.00s CPU      0.01s WALL (       1 calls)
     wfcinit:atom :      0.00s CPU      0.00s WALL (       1 calls)
     wfcinit:wfcr :      0.04s CPU      0.02s WALL (       1 calls)
     potinit      :      0.03s CPU      0.01s WALL (       1 calls)
     hinit0       :      0.06s CPU      0.05s WALL (       1 calls)

     Called by electrons:
     c_bands      :      0.50s CPU      0.30s WALL (       1 calls)
     v_of_rho     :      0.01s CPU      0.01s WALL (       1 calls)
     v_h          :      0.00s CPU      0.00s WALL (       1 calls)
     v_xc         :      0.01s CPU      0.01s WALL (       1 calls)

     Called by c_bands:
     init_us_2    :      0.00s CPU      0.00s WALL (       1 calls)
     init_us_2:cp :      0.00s CPU      0.00s WALL (       1 calls)
     cegterg      :      0.43s CPU      0.23s WALL (       1 calls)

     Called by sum_band:

     Called by *egterg:
     cdiaghg      :      0.04s CPU      0.03s WALL (      21 calls)
     cegterg:over :      0.05s CPU      0.03s WALL (      20 calls)
     cegterg:upda :      0.04s CPU      0.02s WALL (      20 calls)
     cegterg:last :      0.02s CPU      0.01s WALL (       3 calls)
     h_psi        :      0.31s CPU      0.16s WALL (      22 calls)
     g_psi        :      0.00s CPU      0.00s WALL (      20 calls)

     Called by h_psi:
     h_psi:calbec :      0.06s CPU      0.03s WALL (      22 calls)
     vloc_psi     :      0.21s CPU      0.11s WALL (      22 calls)
     add_vuspsi   :      0.05s CPU      0.03s WALL (      22 calls)

     General routines
     calbec       :      0.06s CPU      0.03s WALL (      22 calls)
     fft          :      0.01s CPU      0.00s WALL (       4 calls)
     fftw         :      0.20s CPU      0.10s WALL (     418 calls)
     davcio       :      0.00s CPU      0.00s WALL (       2 calls)

     Parallel routines

     PWSCF        :      0.73s CPU      0.59s WALL


   This run was terminated on:  21:46:44   9Jun2023            

=------------------------------------------------------------------------------=
   JOB DONE.
=------------------------------------------------------------------------------=
Note: The following floating-point exceptions are signalling: IEEE_DENORMAL
Note: The following floating-point exceptions are signalling: IEEE_DENORMAL
Note: The following floating-point exceptions are signalling: IEEE_DENORMAL
Note: The following floating-point exceptions are signalling: IEEE_DENORMAL
Note: The following floating-point exceptions are signalling: IEEE_DENORMAL
Note: The following floating-point exceptions are signalling: IEEE_DENORMAL
Note: The following floating-point exceptions are signalling: IEEE_DENORMAL
Note: The following floating-point exceptions are signalling: IEEE_DENORMAL
Note: The following floating-point exceptions are signalling: IEEE_DENORMAL
Note: The following floating-point exceptions are signalling: IEEE_DENORMAL
Note: The following floating-point exceptions are signalling: IEEE_DENORMAL
Note: The following floating-point exceptions are signalling: IEEE_DENORMAL
Note: The following floating-point exceptions are signalling: IEEE_DENORMAL
Note: The following floating-point exceptions are signalling: IEEE_DENORMAL
Note: The following floating-point exceptions are signalling: IEEE_DENORMAL
Note: The following floating-point exceptions are signalling: IEEE_DENORMAL
Note: The following floating-point exceptions are signalling: IEEE_DENORMAL
Note: The following floating-point exceptions are signalling: IEEE_DENORMAL
Note: The following floating-point exceptions are signalling: IEEE_DENORMAL
Note: The following floating-point exceptions are signalling: IEEE_DENORMAL
Note: The following floating-point exceptions are signalling: IEEE_DENORMAL
Note: The following floating-point exceptions are signalling: IEEE_DENORMAL
Note: The following floating-point exceptions are signalling: IEEE_DENORMAL
Note: The following floating-point exceptions are signalling: IEEE_DENORMAL
Note: The following floating-point exceptions are signalling: IEEE_DENORMAL
Note: The following floating-point exceptions are signalling: IEEE_DENORMAL
Note: The following floating-point exceptions are signalling: IEEE_DENORMAL
Note: The following floating-point exceptions are signalling: IEEE_DENORMAL
Note: The following floating-point exceptions are signalling: IEEE_DENORMAL
Note: The following floating-point exceptions are signalling: IEEE_DENORMAL
Note: The following floating-point exceptions are signalling: IEEE_DENORMAL
Note: The following floating-point exceptions are signalling: IEEE_DENORMAL
Note: The following floating-point exceptions are signalling: IEEE_DENORMAL
Note: The following floating-point exceptions are signalling: IEEE_DENORMAL
Note: The following floating-point exceptions are signalling: IEEE_DENORMAL
Note: The following floating-point exceptions are signalling: IEEE_DENORMAL
Note: The following floating-point exceptions are signalling: IEEE_DENORMAL
Note: The following floating-point exceptions are signalling: IEEE_DENORMAL
Note: The following floating-point exceptions are signalling: IEEE_DENORMAL
Note: The following floating-point exceptions are signalling: IEEE_DENORMAL
Note: The following floating-point exceptions are signalling: IEEE_DENORMAL
Note: The following floating-point exceptions are signalling: IEEE_DENORMAL
Note: The following floating-point exceptions are signalling: IEEE_DENORMAL
Note: The following floating-point exceptions are signalling: IEEE_DENORMAL
Note: The following floating-point exceptions are signalling: IEEE_DENORMAL
Note: The following floating-point exceptions are signalling: IEEE_DENORMAL
Note: The following floating-point exceptions are signalling: IEEE_DENORMAL
Note: The following floating-point exceptions are signalling: IEEE_DENORMAL
Note: The following floating-point exceptions are signalling: IEEE_DENORMAL
Note: The following floating-point exceptions are signalling: IEEE_DENORMAL
Note: The following floating-point exceptions are signalling: IEEE_DENORMAL
Note: The following floating-point exceptions are signalling: IEEE_DENORMAL
Note: The following floating-point exceptions are signalling: IEEE_DENORMAL
Note: The following floating-point exceptions are signalling: IEEE_DENORMAL
Note: The following floating-point exceptions are signalling: IEEE_DENORMAL
Note: The following floating-point exceptions are signalling: IEEE_DENORMAL
Note: The following floating-point exceptions are signalling: IEEE_DENORMAL
Note: The following floating-point exceptions are signalling: IEEE_DENORMAL
Note: The following floating-point exceptions are signalling: IEEE_DENORMAL
Note: The following floating-point exceptions are signalling: IEEE_DENORMAL
Note: The following floating-point exceptions are signalling: IEEE_DENORMAL
Note: The following floating-point exceptions are signalling: IEEE_DENORMAL
Note: The following floating-point exceptions are signalling: IEEE_DENORMAL
Note: The following floating-point exceptions are signalling: IEEE_DENORMAL
Note: The following floating-point exceptions are signalling: IEEE_DENORMAL
Note: The following floating-point exceptions are signalling: IEEE_DENORMAL
Note: The following floating-point exceptions are signalling: IEEE_DENORMAL
Note: The following floating-point exceptions are signalling: IEEE_DENORMAL
Note: The following floating-point exceptions are signalling: IEEE_DENORMAL
Note: The following floating-point exceptions are signalling: IEEE_DENORMAL
Note: The following floating-point exceptions are signalling: IEEE_DENORMAL
Note: The following floating-point exceptions are signalling: IEEE_DENORMAL
