
     Program PWSCF v.7.1 starts on 30Jun2023 at 17:26:13 

     This program is part of the open-source Quantum ESPRESSO suite
     for quantum simulation of materials; please cite
         "P. Giannozzi et al., J. Phys.:Condens. Matter 21 395502 (2009);
         "P. Giannozzi et al., J. Phys.:Condens. Matter 29 465901 (2017);
         "P. Giannozzi et al., J. Chem. Phys. 152 154105 (2020);
          URL http://www.quantum-espresso.org", 
     in publications or presentations arising from this work. More details at
     http://www.quantum-espresso.org/quote

     Parallel version (MPI & OpenMP), running on     144 processor cores
     Number of MPI processes:                72
     Threads/MPI process:                     2

     MPI processes distributed on     1 nodes
     490896 MiB available memory on the printing compute node when the environment starts

     Reading input from wfn.in

     Current dimensions of program PWSCF are:
     Max number of different atomic species (ntypx) = 10
     Max number of k-points (npk) =  40000
     Max angular momentum in pseudopotentials (lmaxx) =  4

     Atomic positions and unit cell read from directory:
     ./WS2.save/
     Atomic positions from file used, from input discarded


     IMPORTANT: XC functional enforced from input :
     Exchange-correlation= XC-001L-012L
                           (   1  12   0   0   0   0   0)
     Any further DFT definition will be discarded
     Please, verify this is what you really want


     K-points division:     npool     =      36
     R & G space division:  proc/nbgrp/npool/nimage =       2
     Subspace diagonalization in iterative solution of the eigenvalue problem:
     a serial algorithm will be used


     Parallelization info
     --------------------
     sticks:   dense  smooth     PW     G-vecs:    dense   smooth      PW
     Min          99      99     36                 8831     8831    2002
     Max         100     100     37                 8842     8842    2017
     Sum         199     199     73                17673    17673    4019

     Using Slab Decomposition



     bravais-lattice index     =            0
     lattice parameter (alat)  =       5.9526  a.u.
     unit-cell volume          =    1449.7341 (a.u.)^3
     number of atoms/cell      =            3
     number of atomic types    =            2
     number of electrons       =        40.00
     number of Kohn-Sham states=           20
     kinetic-energy cutoff     =      20.0000  Ry
     charge density cutoff     =      80.0000  Ry
     Exchange-correlation= XC-001L-012L
                           (   1  12   0   0   0   0   0)

     celldm(1)=   5.952637  celldm(2)=   0.000000  celldm(3)=   0.000000
     celldm(4)=   0.000000  celldm(5)=   0.000000  celldm(6)=   0.000000

     crystal axes: (cart. coord. in units of alat)
               a(1) = (   1.000000   0.000000   0.000000 )  
               a(2) = (   0.500000   0.866025   0.000000 )  
               a(3) = (   0.000000   0.000000   7.936508 )  

     reciprocal axes: (cart. coord. in units 2 pi/alat)
               b(1) = (  1.000000 -0.577350  0.000000 )  
               b(2) = (  0.000000  1.154701  0.000000 )  
               b(3) = (  0.000000  0.000000  0.126000 )  


     PseudoPot. # 1 for W  read from file:
     /global/cfs/cdirs/mp149/gsharing/wkim/codes/ONCVPseudoPack/SG15_v1.2/UPF/LDA/W_LDA_SR.SG15v1.2.UPF
     MD5 check sum: 1f58d2cc1e84772d4f6ff1a533244c17
     Pseudo is Norm-conserving, Zval = 28.0
     Generated using ONCVPSP code by D. R. Hamann
     Using radial grid of 1380 points,  8 beta functions with: 
                l(1) =   0
                l(2) =   0
                l(3) =   1
                l(4) =   1
                l(5) =   2
                l(6) =   2
                l(7) =   3
                l(8) =   3

     PseudoPot. # 2 for S  read from file:
     /global/cfs/cdirs/mp149/gsharing/wkim/codes/ONCVPseudoPack/SG15_v1.2/UPF/LDA/S_LDA_SR.SG15v1.2.UPF
     MD5 check sum: bfae0967926289c343bbebb1102af724
     Pseudo is Norm-conserving, Zval =  6.0
     Generated using ONCVPSP code by D. R. Hamann
     Using radial grid of 1132 points,  4 beta functions with: 
                l(1) =   0
                l(2) =   0
                l(3) =   1
                l(4) =   1

     atomic species   valence    mass     pseudopotential
        W             28.00   183.84000     W ( 1.00)
        S              6.00    78.96000     S ( 1.00)

     No symmetry found


                                    s                        frac. trans.

      isym =  1     identity                                     

 cryst.   s( 1) = (     1          0          0      )
                  (     0          1          0      )
                  (     0          0          1      )

 cart.    s( 1) = (  1.0000000  0.0000000  0.0000000 )
                  (  0.0000000  1.0000000  0.0000000 )
                  (  0.0000000  0.0000000  1.0000000 )


   Cartesian axes

     site n.     atom                  positions (alat units)
         1           W   tau(   1) = (   0.5000000   0.2886751   3.9682540  )
         2           S   tau(   2) = (   1.0000000   0.5773503   3.4603175  )
         3           S   tau(   3) = (   1.0000000   0.5773503   4.4761905  )

   Crystallographic axes

     site n.     atom                  positions (cryst. coord.)
         1           W   tau(   1) = (  0.3333333  0.3333333  0.5000000  )
         2           S   tau(   2) = (  0.6666667  0.6666667  0.4360000  )
         3           S   tau(   3) = (  0.6666667  0.6666667  0.5640000  )

     number of k points=    36
                       cart. coord. in units 2pi/alat
        k(    1) = (   0.0000000   0.0000000   0.0000000), wk =   0.0555556
        k(    2) = (   0.0000000   0.1924501   0.0000000), wk =   0.0555556
        k(    3) = (   0.0000000   0.3849002   0.0000000), wk =   0.0555556
        k(    4) = (   0.0000000   0.5773503   0.0000000), wk =   0.0555556
        k(    5) = (   0.0000000   0.7698004   0.0000000), wk =   0.0555556
        k(    6) = (   0.0000000   0.9622504   0.0000000), wk =   0.0555556
        k(    7) = (   0.1666667  -0.0962250   0.0000000), wk =   0.0555556
        k(    8) = (   0.1666667   0.0962250   0.0000000), wk =   0.0555556
        k(    9) = (   0.1666667   0.2886751   0.0000000), wk =   0.0555556
        k(   10) = (   0.1666667   0.4811252   0.0000000), wk =   0.0555556
        k(   11) = (   0.1666667   0.6735753   0.0000000), wk =   0.0555556
        k(   12) = (   0.1666667   0.8660254   0.0000000), wk =   0.0555556
        k(   13) = (   0.3333333  -0.1924501   0.0000000), wk =   0.0555556
        k(   14) = (   0.3333333   0.0000000   0.0000000), wk =   0.0555556
        k(   15) = (   0.3333333   0.1924501   0.0000000), wk =   0.0555556
        k(   16) = (   0.3333333   0.3849002   0.0000000), wk =   0.0555556
        k(   17) = (   0.3333333   0.5773503   0.0000000), wk =   0.0555556
        k(   18) = (   0.3333333   0.7698004   0.0000000), wk =   0.0555556
        k(   19) = (   0.5000000  -0.2886751   0.0000000), wk =   0.0555556
        k(   20) = (   0.5000000  -0.0962250   0.0000000), wk =   0.0555556
        k(   21) = (   0.5000000   0.0962250   0.0000000), wk =   0.0555556
        k(   22) = (   0.5000000   0.2886751   0.0000000), wk =   0.0555556
        k(   23) = (   0.5000000   0.4811252   0.0000000), wk =   0.0555556
        k(   24) = (   0.5000000   0.6735753   0.0000000), wk =   0.0555556
        k(   25) = (   0.6666667  -0.3849002   0.0000000), wk =   0.0555556
        k(   26) = (   0.6666667  -0.1924501   0.0000000), wk =   0.0555556
        k(   27) = (   0.6666667  -0.0000000   0.0000000), wk =   0.0555556
        k(   28) = (   0.6666667   0.1924501   0.0000000), wk =   0.0555556
        k(   29) = (   0.6666667   0.3849002   0.0000000), wk =   0.0555556
        k(   30) = (   0.6666667   0.5773503   0.0000000), wk =   0.0555556
        k(   31) = (   0.8333333  -0.4811252   0.0000000), wk =   0.0555556
        k(   32) = (   0.8333333  -0.2886751   0.0000000), wk =   0.0555556
        k(   33) = (   0.8333333  -0.0962250   0.0000000), wk =   0.0555556
        k(   34) = (   0.8333333   0.0962250   0.0000000), wk =   0.0555556
        k(   35) = (   0.8333333   0.2886751   0.0000000), wk =   0.0555556
        k(   36) = (   0.8333333   0.4811252   0.0000000), wk =   0.0555556

                       cryst. coord.
        k(    1) = (   0.0000000   0.0000000   0.0000000), wk =   0.0555556
        k(    2) = (   0.0000000   0.1666667   0.0000000), wk =   0.0555556
        k(    3) = (   0.0000000   0.3333333   0.0000000), wk =   0.0555556
        k(    4) = (   0.0000000   0.5000000   0.0000000), wk =   0.0555556
        k(    5) = (   0.0000000   0.6666667   0.0000000), wk =   0.0555556
        k(    6) = (   0.0000000   0.8333333   0.0000000), wk =   0.0555556
        k(    7) = (   0.1666667  -0.0000000   0.0000000), wk =   0.0555556
        k(    8) = (   0.1666667   0.1666667   0.0000000), wk =   0.0555556
        k(    9) = (   0.1666667   0.3333333   0.0000000), wk =   0.0555556
        k(   10) = (   0.1666667   0.5000000   0.0000000), wk =   0.0555556
        k(   11) = (   0.1666667   0.6666667   0.0000000), wk =   0.0555556
        k(   12) = (   0.1666667   0.8333333   0.0000000), wk =   0.0555556
        k(   13) = (   0.3333333   0.0000000   0.0000000), wk =   0.0555556
        k(   14) = (   0.3333333   0.1666667   0.0000000), wk =   0.0555556
        k(   15) = (   0.3333333   0.3333333   0.0000000), wk =   0.0555556
        k(   16) = (   0.3333333   0.5000000   0.0000000), wk =   0.0555556
        k(   17) = (   0.3333333   0.6666667   0.0000000), wk =   0.0555556
        k(   18) = (   0.3333333   0.8333333   0.0000000), wk =   0.0555556
        k(   19) = (   0.5000000   0.0000000   0.0000000), wk =   0.0555556
        k(   20) = (   0.5000000   0.1666667   0.0000000), wk =   0.0555556
        k(   21) = (   0.5000000   0.3333333   0.0000000), wk =   0.0555556
        k(   22) = (   0.5000000   0.5000000   0.0000000), wk =   0.0555556
        k(   23) = (   0.5000000   0.6666667   0.0000000), wk =   0.0555556
        k(   24) = (   0.5000000   0.8333333   0.0000000), wk =   0.0555556
        k(   25) = (   0.6666667   0.0000000   0.0000000), wk =   0.0555556
        k(   26) = (   0.6666667   0.1666667   0.0000000), wk =   0.0555556
        k(   27) = (   0.6666667   0.3333333   0.0000000), wk =   0.0555556
        k(   28) = (   0.6666667   0.5000000   0.0000000), wk =   0.0555556
        k(   29) = (   0.6666667   0.6666667   0.0000000), wk =   0.0555556
        k(   30) = (   0.6666667   0.8333333   0.0000000), wk =   0.0555556
        k(   31) = (   0.8333333   0.0000000   0.0000000), wk =   0.0555556
        k(   32) = (   0.8333333   0.1666667   0.0000000), wk =   0.0555556
        k(   33) = (   0.8333333   0.3333333   0.0000000), wk =   0.0555556
        k(   34) = (   0.8333333   0.5000000   0.0000000), wk =   0.0555556
        k(   35) = (   0.8333333   0.6666667   0.0000000), wk =   0.0555556
        k(   36) = (   0.8333333   0.8333333   0.0000000), wk =   0.0555556

     Dense  grid:    17673 G-vectors     FFT dimensions: (  18,  18, 135)

     Dynamical RAM for                 wfc:       0.33 MB

     Dynamical RAM for     wfc (w. buffer):       0.33 MB

     Dynamical RAM for           str. fact:       0.27 MB

     Dynamical RAM for           local pot:       0.00 MB

     Dynamical RAM for          nlocal pot:       0.80 MB

     Dynamical RAM for                qrad:       3.45 MB

     Dynamical RAM for          rho,v,vnew:       0.91 MB

     Dynamical RAM for           G-vectors:       0.57 MB

     Dynamical RAM for          h,s,v(r/c):       0.29 MB

     Dynamical RAM for          <psi|beta>:       0.01 MB

     Dynamical RAM for                 psi:       1.34 MB

     Dynamical RAM for                hpsi:       1.34 MB

     Dynamical RAM for      wfcinit/wfcrot:       0.85 MB

     Estimated static dynamical RAM per process >       7.58 MB

     Estimated max dynamical RAM per process >      10.57 MB

     Estimated total dynamical RAM >     760.72 MB

     WARNING: libxc functional with ID   12 depends
      on external parameters: check the user_guide of
      QE if you need to modify them or to check their
      default values.

     The potential is recalculated from file :
     ./WS2.save/charge-density

     Starting wfcs are   25 randomized atomic wfcs

     Band Structure Calculation
     Davidson diagonalization with overlap

     Computing kpt #:     1  of     1 on this pool
     total cpu time spent up to now is        0.7 secs

     ethr =  2.50E-09,  avg # of iterations = 13.2

     total cpu time spent up to now is        0.7 secs

     End of band structure calculation

          k = 0.0000 0.0000 0.0000 (  2245 PWs)   bands (ev):

   -85.8943 -47.6808 -47.5722 -47.5722 -22.1868 -21.9450 -21.9450 -21.2769
   -20.8740 -20.8740 -20.5346 -15.5719 -14.4720  -7.2423  -4.3326  -4.3326
    -3.4521  -3.2978  -3.2978  -2.4336

          k = 0.0000 0.1925 0.0000 (  2193 PWs)   bands (ev):

   -85.8549 -47.6638 -47.5947 -47.5573 -21.1917 -21.0084 -20.8680 -20.8092
   -20.7308 -20.3954 -20.3356 -15.1843 -14.2247  -6.7840  -4.9239  -4.6263
    -3.8501  -3.7925  -2.7048  -2.5674

          k = 0.0000 0.3849 0.0000 (  2186 PWs)   bands (ev):

   -85.8495 -47.6892 -47.6549 -47.5882 -21.3746 -21.2403 -21.2225 -21.0307
   -20.6361 -20.5987 -20.5220 -14.2257 -13.7117  -6.8028  -5.8891  -5.5264
    -4.5794  -3.3939  -2.9884  -2.8768

          k = 0.0000 0.5774 0.0000 (  2208 PWs)   bands (ev):

   -85.8654 -47.7631 -47.6546 -47.6114 -22.1108 -22.0048 -21.5600 -21.3440
   -21.1944 -20.9642 -20.7424 -13.6108 -13.4003  -7.4805  -6.5485  -5.7641
    -4.8975  -3.7582  -2.4813  -2.3630

          k = 0.0000 0.7698 0.0000 (  2186 PWs)   bands (ev):

   -85.8495 -47.6892 -47.6549 -47.5882 -21.3746 -21.2403 -21.2225 -21.0307
   -20.6361 -20.5987 -20.5220 -14.2257 -13.7117  -6.8028  -5.8891  -5.5264
    -4.5794  -3.3939  -2.9884  -2.8768

          k = 0.0000 0.9623 0.0000 (  2193 PWs)   bands (ev):

   -85.8549 -47.6638 -47.5947 -47.5573 -21.1917 -21.0084 -20.8680 -20.8092
   -20.7308 -20.3954 -20.3356 -15.1843 -14.2247  -6.7840  -4.9239  -4.6263
    -3.8501  -3.7925  -2.7048  -2.5674

          k = 0.1667-0.0962 0.0000 (  2193 PWs)   bands (ev):

   -85.8549 -47.6638 -47.5947 -47.5573 -21.1916 -21.0084 -20.8680 -20.8092
   -20.7308 -20.3954 -20.3356 -15.1843 -14.2247  -6.7840  -4.9239  -4.6263
    -3.8501  -3.7925  -2.7048  -2.5674

          k = 0.1667 0.0962 0.0000 (  2193 PWs)   bands (ev):

   -85.8549 -47.6638 -47.5947 -47.5573 -21.1916 -21.0084 -20.8680 -20.8092
   -20.7308 -20.3954 -20.3356 -15.1843 -14.2247  -6.7840  -4.9239  -4.6263
    -3.8501  -3.7925  -2.7048  -2.5674

          k = 0.1667 0.2887 0.0000 (  2186 PWs)   bands (ev):

   -85.8501 -47.6603 -47.6594 -47.5822 -21.5052 -21.0376 -21.0190 -20.7699
   -20.6779 -20.6333 -20.4795 -14.4932 -13.8604  -6.4514  -5.4149  -5.2977
    -4.9761  -3.5729  -2.8495  -2.7460

          k = 0.1667 0.4811 0.0000 (  2187 PWs)   bands (ev):

   -85.8503 -47.7278 -47.6432 -47.6143 -21.7019 -21.2750 -21.1972 -21.0528
   -20.9984 -20.5968 -20.3038 -13.6303 -13.3942  -6.9706  -6.5562  -5.4808
    -4.9905  -3.9096  -3.5590  -2.4011

          k = 0.1667 0.6736 0.0000 (  2187 PWs)   bands (ev):

   -85.8503 -47.7278 -47.6432 -47.6143 -21.7019 -21.2750 -21.1972 -21.0528
   -20.9984 -20.5968 -20.3038 -13.6303 -13.3942  -6.9706  -6.5562  -5.4808
    -4.9905  -3.9096  -3.5590  -2.4011

          k = 0.1667 0.8660 0.0000 (  2186 PWs)   bands (ev):

   -85.8501 -47.6603 -47.6595 -47.5822 -21.5052 -21.0376 -21.0189 -20.7699
   -20.6779 -20.6333 -20.4795 -14.4932 -13.8604  -6.4514  -5.4149  -5.2977
    -4.9761  -3.5729  -2.8495  -2.7460

          k = 0.3333-0.1925 0.0000 (  2186 PWs)   bands (ev):

   -85.8495 -47.6892 -47.6549 -47.5882 -21.3746 -21.2403 -21.2225 -21.0307
   -20.6361 -20.5987 -20.5220 -14.2257 -13.7117  -6.8028  -5.8891  -5.5264
    -4.5794  -3.3939  -2.9884  -2.8768

          k = 0.3333 0.0000 0.0000 (  2186 PWs)   bands (ev):

   -85.8501 -47.6603 -47.6595 -47.5822 -21.5052 -21.0376 -21.0189 -20.7699
   -20.6779 -20.6333 -20.4795 -14.4932 -13.8604  -6.4514  -5.4149  -5.2977
    -4.9761  -3.5729  -2.8495  -2.7460

          k = 0.3333 0.1925 0.0000 (  2186 PWs)   bands (ev):

   -85.8495 -47.6892 -47.6549 -47.5882 -21.3746 -21.2403 -21.2225 -21.0307
   -20.6361 -20.5987 -20.5220 -14.2257 -13.7117  -6.8028  -5.8891  -5.5264
    -4.5794  -3.3939  -2.9884  -2.8768

          k = 0.3333 0.3849 0.0000 (  2187 PWs)   bands (ev):

   -85.8503 -47.7278 -47.6432 -47.6143 -21.7019 -21.2750 -21.1972 -21.0528
   -20.9985 -20.5968 -20.3038 -13.6303 -13.3942  -6.9706  -6.5562  -5.4808
    -4.9905  -3.9096  -3.5590  -2.4011

          k = 0.3333 0.5774 0.0000 (  2196 PWs)   bands (ev):

   -85.8611 -47.7011 -47.6899 -47.6432 -22.2677 -21.1909 -21.1771 -21.0862
   -21.0741 -21.0462 -20.9650 -13.3117 -13.1999  -7.0532  -6.4049  -5.5653
    -5.1801  -4.6376  -4.0882  -2.1036

          k = 0.3333 0.7698 0.0000 (  2187 PWs)   bands (ev):

   -85.8503 -47.7278 -47.6432 -47.6142 -21.7019 -21.2750 -21.1972 -21.0528
   -20.9984 -20.5968 -20.3038 -13.6303 -13.3942  -6.9706  -6.5562  -5.4808
    -4.9905  -3.9096  -3.5590  -2.4011

          k = 0.5000-0.2887 0.0000 (  2208 PWs)   bands (ev):

   -85.8654 -47.7631 -47.6546 -47.6114 -22.1108 -22.0048 -21.5600 -21.3440
   -21.1943 -20.9642 -20.7424 -13.6108 -13.4003  -7.4805  -6.5485  -5.7641
    -4.8975  -3.7582  -2.4813  -2.3630

          k = 0.5000-0.0962 0.0000 (  2187 PWs)   bands (ev):

   -85.8503 -47.7278 -47.6432 -47.6142 -21.7019 -21.2750 -21.1972 -21.0528
   -20.9984 -20.5968 -20.3038 -13.6303 -13.3942  -6.9706  -6.5562  -5.4808
    -4.9905  -3.9096  -3.5590  -2.4011

          k = 0.5000 0.0962 0.0000 (  2187 PWs)   bands (ev):

   -85.8503 -47.7278 -47.6432 -47.6143 -21.7019 -21.2750 -21.1972 -21.0528
   -20.9984 -20.5968 -20.3038 -13.6303 -13.3942  -6.9706  -6.5562  -5.4808
    -4.9905  -3.9096  -3.5590  -2.4011

          k = 0.5000 0.2887 0.0000 (  2208 PWs)   bands (ev):

   -85.8654 -47.7631 -47.6546 -47.6114 -22.1108 -22.0048 -21.5600 -21.3440
   -21.1944 -20.9642 -20.7424 -13.6108 -13.4003  -7.4805  -6.5485  -5.7641
    -4.8975  -3.7582  -2.4813  -2.3630

          k = 0.5000 0.4811 0.0000 (  2187 PWs)   bands (ev):

   -85.8503 -47.7278 -47.6432 -47.6143 -21.7019 -21.2750 -21.1972 -21.0528
   -20.9984 -20.5968 -20.3038 -13.6303 -13.3942  -6.9706  -6.5562  -5.4808
    -4.9905  -3.9096  -3.5590  -2.4011

          k = 0.5000 0.6736 0.0000 (  2187 PWs)   bands (ev):

   -85.8503 -47.7278 -47.6432 -47.6142 -21.7019 -21.2750 -21.1972 -21.0528
   -20.9984 -20.5968 -20.3038 -13.6303 -13.3942  -6.9706  -6.5562  -5.4808
    -4.9905  -3.9096  -3.5590  -2.4011

          k = 0.6667-0.3849 0.0000 (  2186 PWs)   bands (ev):

   -85.8495 -47.6892 -47.6549 -47.5882 -21.3746 -21.2403 -21.2225 -21.0307
   -20.6361 -20.5987 -20.5220 -14.2257 -13.7117  -6.8028  -5.8891  -5.5264
    -4.5794  -3.3939  -2.9884  -2.8768

          k = 0.6667-0.1925 0.0000 (  2187 PWs)   bands (ev):

   -85.8503 -47.7278 -47.6432 -47.6142 -21.7019 -21.2750 -21.1972 -21.0528
   -20.9984 -20.5968 -20.3038 -13.6303 -13.3942  -6.9706  -6.5562  -5.4808
    -4.9905  -3.9096  -3.5590  -2.4011

          k = 0.6667-0.0000 0.0000 (  2196 PWs)   bands (ev):

   -85.8611 -47.7011 -47.6899 -47.6432 -22.2677 -21.1909 -21.1771 -21.0862
   -21.0741 -21.0462 -20.9650 -13.3117 -13.1999  -7.0532  -6.4049  -5.5653
    -5.1801  -4.6376  -4.0882  -2.1036

          k = 0.6667 0.1925 0.0000 (  2187 PWs)   bands (ev):

   -85.8503 -47.7278 -47.6432 -47.6143 -21.7019 -21.2750 -21.1972 -21.0528
   -20.9985 -20.5968 -20.3038 -13.6303 -13.3942  -6.9706  -6.5562  -5.4808
    -4.9905  -3.9096  -3.5590  -2.4011

          k = 0.6667 0.3849 0.0000 (  2186 PWs)   bands (ev):

   -85.8495 -47.6892 -47.6549 -47.5882 -21.3746 -21.2403 -21.2225 -21.0307
   -20.6361 -20.5987 -20.5220 -14.2257 -13.7117  -6.8028  -5.8891  -5.5264
    -4.5794  -3.3939  -2.9884  -2.8768

          k = 0.6667 0.5774 0.0000 (  2186 PWs)   bands (ev):

   -85.8501 -47.6603 -47.6595 -47.5822 -21.5052 -21.0376 -21.0189 -20.7699
   -20.6779 -20.6333 -20.4795 -14.4932 -13.8604  -6.4514  -5.4149  -5.2977
    -4.9761  -3.5729  -2.8495  -2.7460

          k = 0.8333-0.4811 0.0000 (  2193 PWs)   bands (ev):

   -85.8549 -47.6638 -47.5947 -47.5573 -21.1916 -21.0084 -20.8680 -20.8092
   -20.7308 -20.3954 -20.3356 -15.1843 -14.2247  -6.7840  -4.9239  -4.6263
    -3.8501  -3.7925  -2.7048  -2.5674

          k = 0.8333-0.2887 0.0000 (  2186 PWs)   bands (ev):

   -85.8501 -47.6603 -47.6595 -47.5822 -21.5052 -21.0376 -21.0189 -20.7699
   -20.6779 -20.6333 -20.4795 -14.4932 -13.8604  -6.4514  -5.4149  -5.2977
    -4.9761  -3.5729  -2.8495  -2.7460

          k = 0.8333-0.0962 0.0000 (  2187 PWs)   bands (ev):

   -85.8503 -47.7278 -47.6432 -47.6143 -21.7019 -21.2750 -21.1972 -21.0528
   -20.9984 -20.5968 -20.3038 -13.6303 -13.3942  -6.9706  -6.5562  -5.4808
    -4.9905  -3.9096  -3.5590  -2.4011

          k = 0.8333 0.0962 0.0000 (  2187 PWs)   bands (ev):

   -85.8503 -47.7278 -47.6432 -47.6143 -21.7019 -21.2750 -21.1972 -21.0528
   -20.9984 -20.5968 -20.3038 -13.6303 -13.3942  -6.9706  -6.5562  -5.4808
    -4.9905  -3.9096  -3.5590  -2.4011

          k = 0.8333 0.2887 0.0000 (  2186 PWs)   bands (ev):

   -85.8501 -47.6603 -47.6594 -47.5822 -21.5052 -21.0376 -21.0190 -20.7699
   -20.6779 -20.6333 -20.4795 -14.4932 -13.8604  -6.4514  -5.4149  -5.2977
    -4.9761  -3.5729  -2.8495  -2.7460

          k = 0.8333 0.4811 0.0000 (  2193 PWs)   bands (ev):

   -85.8549 -47.6638 -47.5947 -47.5573 -21.1916 -21.0084 -20.8680 -20.8092
   -20.7308 -20.3954 -20.3356 -15.1843 -14.2247  -6.7840  -4.9239  -4.6263
    -3.8501  -3.7925  -2.7048  -2.5674

     Writing all to output data dir ./WS2.save/

     init_run     :      0.22s CPU      0.23s WALL (       1 calls)
     electrons    :      0.44s CPU      0.26s WALL (       1 calls)

     Called by init_run:
     wfcinit      :      0.00s CPU      0.01s WALL (       1 calls)
     wfcinit:atom :      0.00s CPU      0.00s WALL (       1 calls)
     wfcinit:wfcr :      0.05s CPU      0.02s WALL (       1 calls)
     potinit      :      0.02s CPU      0.02s WALL (       1 calls)
     hinit0       :      0.20s CPU      0.19s WALL (       1 calls)

     Called by electrons:
     c_bands      :      0.44s CPU      0.26s WALL (       1 calls)
     v_of_rho     :      0.01s CPU      0.01s WALL (       1 calls)
     v_h          :      0.00s CPU      0.00s WALL (       1 calls)
     v_xc         :      0.01s CPU      0.01s WALL (       1 calls)

     Called by c_bands:
     init_us_2    :      0.00s CPU      0.00s WALL (       1 calls)
     init_us_2:cp :      0.00s CPU      0.00s WALL (       1 calls)
     cegterg      :      0.36s CPU      0.20s WALL (       1 calls)

     Called by sum_band:

     Called by *egterg:
     cdiaghg      :      0.03s CPU      0.02s WALL (      14 calls)
     cegterg:over :      0.06s CPU      0.03s WALL (      13 calls)
     cegterg:upda :      0.03s CPU      0.02s WALL (      13 calls)
     cegterg:last :      0.01s CPU      0.01s WALL (       3 calls)
     h_psi        :      0.28s CPU      0.14s WALL (      15 calls)
     g_psi        :      0.00s CPU      0.00s WALL (      13 calls)

     Called by h_psi:
     h_psi:calbec :      0.03s CPU      0.02s WALL (      15 calls)
     vloc_psi     :      0.21s CPU      0.11s WALL (      15 calls)
     add_vuspsi   :      0.04s CPU      0.02s WALL (      15 calls)

     General routines
     calbec       :      0.03s CPU      0.02s WALL (      15 calls)
     fft          :      0.15s CPU      0.15s WALL (       3 calls)
     fftw         :      0.20s CPU      0.10s WALL (     406 calls)
     davcio       :      0.00s CPU      0.00s WALL (       2 calls)

     Parallel routines

     PWSCF        :      0.79s CPU      0.71s WALL


   This run was terminated on:  17:26:13  30Jun2023            

=------------------------------------------------------------------------------=
   JOB DONE.
=------------------------------------------------------------------------------=
Note: The following floating-point exceptions are signalling: IEEE_DENORMAL
Note: The following floating-point exceptions are signalling: IEEE_DENORMAL
Note: The following floating-point exceptions are signalling: IEEE_DENORMAL
Note: The following floating-point exceptions are signalling: IEEE_DENORMAL
Note: The following floating-point exceptions are signalling: IEEE_DENORMAL
Note: The following floating-point exceptions are signalling: IEEE_DENORMAL
Note: The following floating-point exceptions are signalling: IEEE_DENORMAL
Note: The following floating-point exceptions are signalling: IEEE_DENORMAL
Note: The following floating-point exceptions are signalling: IEEE_DENORMAL
Note: The following floating-point exceptions are signalling: IEEE_DENORMAL
Note: The following floating-point exceptions are signalling: IEEE_DENORMAL
Note: The following floating-point exceptions are signalling: IEEE_DENORMAL
Note: The following floating-point exceptions are signalling: IEEE_DENORMAL
Note: The following floating-point exceptions are signalling: IEEE_DENORMAL
Note: The following floating-point exceptions are signalling: IEEE_DENORMAL
Note: The following floating-point exceptions are signalling: IEEE_DENORMAL
Note: The following floating-point exceptions are signalling: IEEE_DENORMAL
Note: The following floating-point exceptions are signalling: IEEE_DENORMAL
Note: The following floating-point exceptions are signalling: IEEE_DENORMAL
Note: The following floating-point exceptions are signalling: IEEE_DENORMAL
Note: The following floating-point exceptions are signalling: IEEE_DENORMAL
Note: The following floating-point exceptions are signalling: IEEE_DENORMAL
Note: The following floating-point exceptions are signalling: IEEE_DENORMAL
Note: The following floating-point exceptions are signalling: IEEE_DENORMAL
Note: The following floating-point exceptions are signalling: IEEE_DENORMAL
Note: The following floating-point exceptions are signalling: IEEE_DENORMAL
Note: The following floating-point exceptions are signalling: IEEE_DENORMAL
Note: The following floating-point exceptions are signalling: IEEE_DENORMAL
Note: The following floating-point exceptions are signalling: IEEE_DENORMAL
Note: The following floating-point exceptions are signalling: IEEE_DENORMAL
Note: The following floating-point exceptions are signalling: IEEE_DENORMAL
Note: The following floating-point exceptions are signalling: IEEE_DENORMAL
Note: The following floating-point exceptions are signalling: IEEE_DENORMAL
Note: The following floating-point exceptions are signalling: IEEE_DENORMAL
Note: The following floating-point exceptions are signalling: IEEE_DENORMAL
Note: The following floating-point exceptions are signalling: IEEE_DENORMAL
Note: The following floating-point exceptions are signalling: IEEE_DENORMAL
Note: The following floating-point exceptions are signalling: IEEE_DENORMAL
Note: The following floating-point exceptions are signalling: IEEE_DENORMAL
Note: The following floating-point exceptions are signalling: IEEE_DENORMAL
Note: The following floating-point exceptions are signalling: IEEE_DENORMAL
Note: The following floating-point exceptions are signalling: IEEE_DENORMAL
Note: The following floating-point exceptions are signalling: IEEE_DENORMAL
Note: The following floating-point exceptions are signalling: IEEE_DENORMAL
Note: The following floating-point exceptions are signalling: IEEE_DENORMAL
Note: The following floating-point exceptions are signalling: IEEE_DENORMAL
Note: The following floating-point exceptions are signalling: IEEE_DENORMAL
Note: The following floating-point exceptions are signalling: IEEE_DENORMAL
Note: The following floating-point exceptions are signalling: IEEE_DENORMAL
Note: The following floating-point exceptions are signalling: IEEE_DENORMAL
Note: The following floating-point exceptions are signalling: IEEE_DENORMAL
Note: The following floating-point exceptions are signalling: IEEE_DENORMAL
Note: The following floating-point exceptions are signalling: IEEE_DENORMAL
Note: The following floating-point exceptions are signalling: IEEE_DENORMAL
Note: The following floating-point exceptions are signalling: IEEE_DENORMAL
Note: The following floating-point exceptions are signalling: IEEE_DENORMAL
Note: The following floating-point exceptions are signalling: IEEE_DENORMAL
Note: The following floating-point exceptions are signalling: IEEE_DENORMAL
Note: The following floating-point exceptions are signalling: IEEE_DENORMAL
Note: The following floating-point exceptions are signalling: IEEE_DENORMAL
Note: The following floating-point exceptions are signalling: IEEE_DENORMAL
Note: The following floating-point exceptions are signalling: IEEE_DENORMAL
Note: The following floating-point exceptions are signalling: IEEE_DENORMAL
Note: The following floating-point exceptions are signalling: IEEE_DENORMAL
Note: The following floating-point exceptions are signalling: IEEE_DENORMAL
Note: The following floating-point exceptions are signalling: IEEE_DENORMAL
Note: The following floating-point exceptions are signalling: IEEE_DENORMAL
Note: The following floating-point exceptions are signalling: IEEE_DENORMAL
Note: The following floating-point exceptions are signalling: IEEE_DENORMAL
Note: The following floating-point exceptions are signalling: IEEE_DENORMAL
Note: The following floating-point exceptions are signalling: IEEE_DENORMAL
Note: The following floating-point exceptions are signalling: IEEE_DENORMAL
