Siesta Version  : MaX-1.0-55-g0612142bc
Architecture    : ----
Compiler version: GNU-10.3.0
Compiler flags  : -O3 -funroll-loops -funsafe-math-optimizations -fallow-argument-mismatch -fallow-argument-mismatch;
PP flags        : ----
Libraries       : ----
Parallelisations: MPI
NetCDF support
NetCDF-4 support

Runtime information:
* Directory : /pscratch/sd/w/wkim94/Libxc_tutorial/WS2/siesta/LDA/ortho
* Running on 32 nodes in parallel.
>> Start of run:  28-JUN-2023  22:24:46

                           *********************** 
                           *  WELCOME TO SIESTA  * 
                           *********************** 

reinit: Reading from standard input
reinit: Dumping input in INPUT_TMP.29376
************************** Dump of input data file ****************************
# SIESTA INPUT #
SystemLabel              WS2
NumberOfSpecies 2
%block ChemicalSpeciesLabel
 1 74 W
 2 16 S
%endblock ChemicalSpeciesLabel
LatticeConstant 1.0 Ang
%block LatticeVectors
3.150000000000 0.000000000000 0.000000000000
0.000000000000 5.455960043800 0.000000000000
0.000000000000 0.000000000000 25.000000000000
%endblock LatticeVectors
NumberOfAtoms 6
AtomicCoordinatesFormat Fractional
%block AtomicCoordinatesAndAtomicSpecies
0.500000000000 0.166666666667 0.498088895900 1
1.000000000000 0.666666666667 0.498088895900 1
0.000000000000 0.333333333333 0.432316895900 2
0.500000000000 0.833333333333 0.432316895900 2
0.000000000000 0.333333333333 0.563860895900 2
0.500000000000 0.833333333333 0.563860895900 2
%endblock AtomicCoordinatesAndAtomicSpecies
XC.functional            LDA
XC.authors               PZ
MeshCutoff               160.0 Ry
OccupationFunction       MP
OccupationMPOrder        1
ElectronicTemperature    0.001 eV
%block kgrid_Monkhorst_Pack
      6     0     0        0.0
      0     6     0        0.0
      0     0     1        0.0
%endblock kgrid_Monkhorst_Pack
SolutionMethod           diagon
Diag.ParallelOverK       T
# Diag.Algorithm           ELPA
# NumberOfEigenStates      1300
DM.UseSaveDM             F
MD.UseSaveXV             T
MD.Steps                 0
MD.TypeOfRun             Broyden
MD.MaxForceTol           0.01 eV/Ang
MD.VariableCell          F
MaxSCFIterations         1000
SCF.DM.Converge          T
SCF.DM.Tolerance         1.0d-8
SCF.MustConverge         T
SCF.Mix                  Hamiltonian
SCF.Mixer.Method         Pulay
SCF.Mixer.Variant        original
SCF.Mixer.Weight         0.30
SCF.Mixer.History        10
Write.DM                 T
Write.H                  F
WriteMullikenPop         1
WriteEigenvalues         T
WriteCoorInitial         T
WriteCoorStep            T
WriteForces              T
XML.Write                T
SaveHS                   F
SaveRho                  T
SaveDeltaRho             F
SaveRhoXC                T
SaveElectrostaticPotential T
SaveNeutralAtomPotential   F
SaveTotalPotential         T
SaveIonicCharge            F
SaveBaderCharge            F
SaveTotalCharge            F
CDF.Save                 F
CDF.Grid.Precision       double
##################
# Band Structure #
##################
BandLinesScale ReciprocalLatticeVectors
%block BandLines
1  0.0000000   0.00000000 0.000   \Gamma
30 0.3333333   0.66666666 0.000   K
15 0.5000000   0.50000000 0.000   M
26 0.0000000   0.00000000 0.000   \Gamma
%endblock bandlinek
#WFS.Write.For.Bands T
#WFS.Band.Min 400
#WFS.Band.Max 500
#%block BandLines
#1  0.0000000   0.00000000 0.000   \Gamma
#60 7.0000000  -2.33333333 0.000   K
#60 3.5000000  -3.50000000 0.000   M
#60 0.0000000   0.00000000 0.000   \Gamma
#%endblock BandLines
################
# Wavefunction #
#################
# WriteWaveFunctions              F
# WaveFuncKPointsScale ReciprocalLatticeVectors
# %block WaveFuncKPoints
# 0.000  0.000  0.000  from 1 to 10 # Gamma wavefuncs 1 to 10
# 2.000  0.000  0.000  1 3 5        # X wavefuncs 1,3 and 5
# 1.500  1.500  1.500               # K wavefuncs, all
# %endblock WaveFuncKPoints
########
# PDOS #
########
# %block ProjectedDensityOfStates
# -10.00  0.00  0.050  500  eV
# %endblock ProjectedDensityOfStates
# %block PDOS.kgrid_Monkhorst_Pack
#       3      0     0        0.0
#       0      3     0        0.0
#       0      0     1        0.0
# %endblock PDOS.kgrid_Monkhorst_Pack
# %include grimme.fdf
# Slab.DipoleCorrection vacuum
# %block Geometry.Charge
# plane   0
# delta
# 0.0 0.0 2.5 Ang  # An intersection point, in the plane
# 0.0 0.0 1.0      # The normal vector to the plane
# %endblock Geometry.Charge
************************** End of input data file *****************************

reinit: -----------------------------------------------------------------------
reinit: System Name: 
reinit: -----------------------------------------------------------------------
reinit: System Label: WS2
reinit: -----------------------------------------------------------------------

initatom: Reading input for the pseudopotentials and atomic orbitals ----------
Species number:   1 Atomic number:   74 Label: W
Species number:   2 Atomic number:   16 Label: S


---- Processing specs for species: W
Ground state valence configuration:   6s02  5d04
Reading pseudopotential information in PSML from:
  W.psml
PSML file version: 1.1
Using libxc ids:    1   9
LDA--CA XC_LDA_X--XC_LDA_C_PZ ca
 Using ATOM defaults for log grid...
PSML uuid: fcb8b1d0-159f-11ee-454c-def0b51f1855

---- Processing specs for species: S
Ground state valence configuration:   3s02  3p04
Reading pseudopotential information in PSML from:
  S.psml
PSML file version: 1.1
Using libxc ids:    1   9
LDA--CA XC_LDA_X--XC_LDA_C_PZ ca
 Using ATOM defaults for log grid...
PSML uuid: d8c81a40-159f-11ee-7ea3-f7e07fb497ef
Semicore shell(s) with 22 electrons included in the valence for W

---- Pseudopotential check for W 

Pseudized shells:
5s( 2.00) rc: 2.17
5p( 6.00) rc: 2.22
5d( 4.00) rc: 1.90
4f(14.00) rc: 3.07
Valence configuration for ps generation: 4f:5s:5p:6s:5d: Total charge:  28.000000
Semicore shell(s): 5s 5p 4f

---- Pseudopotential check for S 

Pseudized shells:
3s( 2.00) rc: 2.13
3p( 4.00) rc: 1.52
Valence configuration for ps generation: 3s:3p: Total charge:   6.000000
For W, standard SIESTA heuristics set lmxkb to 4
 (one more than the basis l, including polarization orbitals).
Use PS.lmax or PS.KBprojectors blocks to override.
Warning: For W lmxkb would have been set to 4
Setting it to maximum value of 3 (f projector)
For S, standard SIESTA heuristics set lmxkb to 3
 (one more than the basis l, including polarization orbitals).
Use PS.lmax or PS.KBprojectors blocks to override.
S pseudopotential only contains V_ls up to l=1 -- lmxkb reset.

<basis_specs>
===============================================================================
W                    Z=  74    Mass=  183.85        Charge= 0.17977+309
Lmxo=3 Lmxkb= 3    BasisType=split      Semic=T
L=0  Nsemic=1  Cnfigmx=6
          i=1  nzeta=1  polorb=0  (5s)  (semicore shell)
            splnorm:   0.15000    
               vcte:    0.0000    
               rinn:    0.0000    
               qcoe:    0.0000    
               qyuk:    0.0000    
               qwid:   0.10000E-01
                rcs:    0.0000    
            lambdas:    1.0000    
          i=2  nzeta=2  polorb=1  (6s)  (to be polarized perturbatively)
            splnorm:   0.15000    
               vcte:    0.0000    
               rinn:    0.0000    
               qcoe:    0.0000    
               qyuk:    0.0000    
               qwid:   0.10000E-01
                rcs:    0.0000      0.0000    
            lambdas:    1.0000      1.0000    
L=1  Nsemic=1  Cnfigmx=6
          i=1  nzeta=1  polorb=0  (5p)  (semicore shell)
            splnorm:   0.15000    
               vcte:    0.0000    
               rinn:    0.0000    
               qcoe:    0.0000    
               qyuk:    0.0000    
               qwid:   0.10000E-01
                rcs:    0.0000    
            lambdas:    1.0000    
          i=2  nzeta=0  polorb=0  (6p)  (perturbative polarization orbital) (from 6s)
L=2  Nsemic=0  Cnfigmx=5
          i=1  nzeta=2  polorb=0  (5d)
            splnorm:   0.15000    
               vcte:    0.0000    
               rinn:    0.0000    
               qcoe:    0.0000    
               qyuk:    0.0000    
               qwid:   0.10000E-01
                rcs:    0.0000      0.0000    
            lambdas:    1.0000      1.0000    
L=3  Nsemic=1  Cnfigmx=5
          i=1  nzeta=1  polorb=0  (4f)  (semicore shell)
            splnorm:   0.15000    
               vcte:    0.0000    
               rinn:    0.0000    
               qcoe:    0.0000    
               qyuk:    0.0000    
               qwid:   0.10000E-01
                rcs:    0.0000    
            lambdas:    1.0000    
          i=2  nzeta=0  polorb=0  (5f)  (empty shell (??) )
-------------------------------------------------------------------------------
L=0  Nkbl=2  erefs: 0.17977+309 0.17977+309
L=1  Nkbl=2  erefs: 0.17977+309 0.17977+309
L=2  Nkbl=1  erefs: 0.17977+309
L=3  Nkbl=2  erefs: 0.17977+309 0.17977+309
===============================================================================
</basis_specs>

atom: Called for W                     (Z =  74)

read_vps: Pseudopotential generation method:
read_vps: ONCVPSP-3.Hamann's oncvpsp                        
Valence charge in pseudo generation:   28.00000

xc_check: Exchange-correlation functional:
xc_check: Ceperley-Alder
Got Vlocal (oncv-fit) from psml data
Choosing vlocal chloc cutoff:  6.100858
qtot up to nchloc:   28.00010580
atom: Maximum radius for chlocal:    6.10086
atom: Maximum radius for r*vlocal+2*Zval:    6.10086
Reading KB projs from W psml data
Using scalar-relativistic projectors in PSML file

PSML: Kleinman-Bylander projectors: 
   l= 0   rc=  2.216479   Ekb= 15.814158
   l= 0   rc=  2.216479   Ekb=  1.874745
   l= 1   rc=  2.272590   Ekb=  7.972544
   l= 1   rc=  2.272590   Ekb=  1.057025
   l= 2   rc=  1.931733   Ekb=  2.794720
   l= 2   rc=  1.931733   Ekb=  0.121160
   l= 3   rc=  3.106275   Ekb= -9.871206
   l= 3   rc=  3.106275   Ekb= -5.769950

PSML: Total number of  Kleinman-Bylander projectors:  32
atom: -------------------------------------------------------------------------

atom: SANKEY-TYPE ORBITALS:
atom: Selected multiple-zeta basis: split     

SPLIT: Orbitals with angular momentum L= 0

SPLIT: Basis orbitals for state 5s

SPLIT: PAO cut-off radius determined from an
SPLIT: energy shift=  0.020000 Ry

   izeta = 1
                 lambda =    1.000000
                     rc =    2.640378
                 energy =   -5.810277
                kinetic =    2.053493
    potential(screened) =   -7.863770
       potential(ionic) =  -45.765872

SPLIT: Basis orbitals for state 6s

SPLIT: PAO cut-off radius determined from an
SPLIT: energy shift=  0.020000 Ry

   izeta = 1
                 lambda =    1.000000
                     rc =    5.731224
                 energy =   -0.617407
                kinetic =    1.702840
    potential(screened) =   -2.320246
       potential(ionic) =  -26.063109

   izeta = 2
                 rmatch =    5.251052
              splitnorm =    0.150000
                 energy =   -0.542233
                kinetic =    2.426719
    potential(screened) =   -2.968952
       potential(ionic) =  -29.474817

SPLIT: Orbitals with angular momentum L= 1

SPLIT: Basis orbitals for state 5p

SPLIT: PAO cut-off radius determined from an
SPLIT: energy shift=  0.020000 Ry

   izeta = 1
                 lambda =    1.000000
                     rc =    3.067687
                 energy =   -3.167786
                kinetic =    3.812400
    potential(screened) =   -6.980186
       potential(ionic) =  -42.608302

SPLIT: Orbitals with angular momentum L= 2

SPLIT: Basis orbitals for state 5d

SPLIT: PAO cut-off radius determined from an
SPLIT: energy shift=  0.020000 Ry

   izeta = 1
                 lambda =    1.000000
                     rc =    5.057783
                 energy =   -0.323676
                kinetic =    3.384783
    potential(screened) =   -3.708459
       potential(ionic) =  -31.825385

   izeta = 2
                 rmatch =    3.519875
              splitnorm =    0.150000
                 energy =   -0.126259
                kinetic =    4.744757
    potential(screened) =   -4.871017
       potential(ionic) =  -36.491601

SPLIT: Orbitals with angular momentum L= 3

SPLIT: Basis orbitals for state 4f

SPLIT: PAO cut-off radius determined from an
SPLIT: energy shift=  0.020000 Ry

   izeta = 1
                 lambda =    1.000000
                     rc =    2.511604
                 energy =   -2.445362
                kinetic =   11.495762
    potential(screened) =  -13.941125
       potential(ionic) =  -48.735282

POLgen: Perturbative polarization orbital with L=  1

POLgen: Polarization orbital for state 6s

   izeta = 1
                     rc =    5.731224
                 energy =    0.124955
                kinetic =    2.088992
    potential(screened) =   -1.964037
       potential(ionic) =  -23.003641
atom: Total number of Sankey-type orbitals: 26

atm_pop: Valence configuration (for local Pseudopot. screening):
 5s( 2.00) 6s( 2.00)                                                  
 5p( 6.00) 6p( 0.00)                                                  
 5d( 4.00)                                                            
 4f(14.00) 5f( 0.00)                                                  
Vna: chval, zval:   28.00000  28.00000

Vna:  Cut-off radius for the neutral-atom potential:   5.731224

atom: _________________________________________________________________________

<basis_specs>
===============================================================================
S                    Z=  16    Mass=  32.070        Charge= 0.17977+309
Lmxo=2 Lmxkb= 1    BasisType=split      Semic=F
L=0  Nsemic=0  Cnfigmx=3
          i=1  nzeta=2  polorb=0  (3s)
            splnorm:   0.15000    
               vcte:    0.0000    
               rinn:    0.0000    
               qcoe:    0.0000    
               qyuk:    0.0000    
               qwid:   0.10000E-01
                rcs:    0.0000      0.0000    
            lambdas:    1.0000      1.0000    
L=1  Nsemic=0  Cnfigmx=3
          i=1  nzeta=2  polorb=1  (3p)  (to be polarized perturbatively)
            splnorm:   0.15000    
               vcte:    0.0000    
               rinn:    0.0000    
               qcoe:    0.0000    
               qyuk:    0.0000    
               qwid:   0.10000E-01
                rcs:    0.0000      0.0000    
            lambdas:    1.0000      1.0000    
L=2  Nsemic=0  Cnfigmx=3
          i=1  nzeta=0  polorb=0  (3d)  (perturbative polarization orbital) (from 3p)
-------------------------------------------------------------------------------
L=0  Nkbl=1  erefs: 0.17977+309
L=1  Nkbl=1  erefs: 0.17977+309
===============================================================================
</basis_specs>

atom: Called for S                     (Z =  16)
NOTE: S pseudopotential has channels up to l= 1
NOTE: PAOs with higher l will be generated with V_local

read_vps: Pseudopotential generation method:
read_vps: ONCVPSP-3.Hamann's oncvpsp                        
Valence charge in pseudo generation:    6.00000

xc_check: Exchange-correlation functional:
xc_check: Ceperley-Alder
Got Vlocal (oncv-fit) from psml data
Choosing vlocal chloc cutoff:  5.988766
qtot up to nchloc:    6.00041856
atom: Maximum radius for chlocal:    5.98877
atom: Maximum radius for r*vlocal+2*Zval:    5.98877
Reading KB projs from S psml data
Using scalar-relativistic projectors in PSML file

PSML: Kleinman-Bylander projectors: 
   l= 0   rc=  2.175677   Ekb= 17.965436
   l= 0   rc=  2.175677   Ekb=  1.361463
   l= 1   rc=  1.552415   Ekb= 21.455266
   l= 1   rc=  1.552415   Ekb=  5.071409

PSML: Total number of  Kleinman-Bylander projectors:   8
atom: -------------------------------------------------------------------------

atom: SANKEY-TYPE ORBITALS:
atom: Selected multiple-zeta basis: split     

SPLIT: Orbitals with angular momentum L= 0

SPLIT: Basis orbitals for state 3s

SPLIT: PAO cut-off radius determined from an
SPLIT: energy shift=  0.020000 Ry

   izeta = 1
                 lambda =    1.000000
                     rc =    4.167741
                 energy =   -1.252260
                kinetic =    0.958827
    potential(screened) =   -2.211087
       potential(ionic) =   -7.249940

   izeta = 2
                 rmatch =    3.498614
              splitnorm =    0.150000
                 energy =   -1.071418
                kinetic =    1.523173
    potential(screened) =   -2.594591
       potential(ionic) =   -7.866180

SPLIT: Orbitals with angular momentum L= 1

SPLIT: Basis orbitals for state 3p

SPLIT: PAO cut-off radius determined from an
SPLIT: energy shift=  0.020000 Ry

   izeta = 1
                 lambda =    1.000000
                     rc =    5.090524
                 energy =   -0.505027
                kinetic =    1.510775
    potential(screened) =   -2.015802
       potential(ionic) =   -6.695996

   izeta = 2
                 rmatch =    3.818550
              splitnorm =    0.150000
                 energy =   -0.354657
                kinetic =    2.186722
    potential(screened) =   -2.541379
       potential(ionic) =   -7.625989
*Note: V_local used for l= 2

** Using vlocal for PAOs with L= 2

POLgen: Perturbative polarization orbital with L=  2

POLgen: Polarization orbital for state 3p

   izeta = 1
                     rc =    5.090524
                 energy =    0.727988
                kinetic =    2.182980
    potential(screened) =   -1.454992
       potential(ionic) =   -5.700287
atom: Total number of Sankey-type orbitals: 13

atm_pop: Valence configuration (for local Pseudopot. screening):
 3s( 2.00)                                                            
 3p( 4.00)                                                            
 3d( 0.00)                                                            
Vna: chval, zval:    6.00000   6.00000

Vna:  Cut-off radius for the neutral-atom potential:   5.090524

atom: _________________________________________________________________________

prinput: Basis input 

PAO.BasisType split     

%block ChemicalSpeciesLabel
    1   74 W                       # Species index, atomic number, species label
    2   16 S                       # Species index, atomic number, species label
%endblock ChemicalSpeciesLabel

%block PAO.Basis                 # Define Basis set
# WARNING: This information might be incomplete!
W                     5                    # Species label, number of l-shells
 n=5   0   1                         # n, l, Nzeta 
   2.640   
   1.000   
 n=6   0   2 P   1                   # n, l, Nzeta, Polarization, NzetaPol
   5.731      5.251   
   1.000      1.000   
 n=5   1   1                         # n, l, Nzeta 
   3.068   
   1.000   
 n=5   2   2                         # n, l, Nzeta 
   5.058      3.520   
   1.000      1.000   
 n=4   3   1                         # n, l, Nzeta 
   2.512   
   1.000   
S                     2                    # Species label, number of l-shells
 n=3   0   2                         # n, l, Nzeta 
   4.168      3.499   
   1.000      1.000   
 n=3   1   2 P   1                   # n, l, Nzeta, Polarization, NzetaPol
   5.091      3.819   
   1.000      1.000   
%endblock PAO.Basis

prinput: ----------------------------------------------------------------------

Dumping basis to NetCDF file W.ion.nc
Dumping basis to NetCDF file S.ion.nc
coor:   Atomic-coordinates input format  =     Fractional

ioxv: Reading coordinates and velocities from file
! Info in XV file prevails over previous structure input

siesta: Atomic coordinates (Bohr) and species
siesta:      2.97632   1.71838  23.53130  1        1
siesta:      5.95264   6.87352  23.53130  1        2
siesta:      0.00000   3.43676  20.42402  2        3
siesta:      2.97632   8.59190  20.42402  2        4
siesta:      0.00000   3.43676  26.63858  2        5
siesta:      2.97632   8.59190  26.63858  2        6

siesta: System type = slab      

initatomlists: Number of atoms, orbitals, and projectors:      6   104    96

siesta: ******************** Simulation parameters ****************************
siesta:
siesta: The following are some of the parameters of the simulation.
siesta: A complete list of the parameters used, including default values,
siesta: can be found in file out.fdf
siesta:
redata: Spin configuration                          = none
redata: Number of spin components                   = 1
redata: Time-Reversal Symmetry                      = T
redata: Spin spiral                                 = F
redata: Long output                                 =   F
redata: Number of Atomic Species                    =        2
redata: Charge density info will appear in .RHO file
redata: Write Mulliken Pop.                         = Atomic and Orbital charges
redata: Matel table size (NRTAB)                    =     1024
redata: Mesh Cutoff                                 =   160.0000 Ry
redata: Net charge of the system                    =     0.0000 |e|
redata: Min. number of SCF Iter                     =        0
redata: Max. number of SCF Iter                     =     1000
redata: SCF convergence failure will abort job
redata: SCF mix quantity                            = Hamiltonian
redata: Mix DM or H after convergence               =   F
redata: Recompute H after scf cycle                 =   F
redata: Mix DM in first SCF step                    =   T
redata: Write Pulay info on disk                    =   F
redata: New DM Occupancy tolerance                  = 0.000000000001
redata: No kicks to SCF
redata: DM Mixing Weight for Kicks                  =     0.5000
redata: Require Harris convergence for SCF          =   F
redata: Harris energy tolerance for SCF             =     0.000100 eV
redata: Require DM convergence for SCF              =   T
redata: DM tolerance for SCF                        =     0.000000
redata: Require EDM convergence for SCF             =   F
redata: EDM tolerance for SCF                       =     0.001000 eV
redata: Require H convergence for SCF               =   T
redata: Hamiltonian tolerance for SCF               =     0.001000 eV
redata: Require (free) Energy convergence for SCF   =   F
redata: (free) Energy tolerance for SCF             =     0.000100 eV
redata: Using Saved Data (generic)                  =   F
redata: Use continuation files for DM               =   F
redata: Neglect nonoverlap interactions             =   F
redata: Method of Calculation                       = Diagonalization
redata: Electronic Temperature                      =    11.6044 K
redata: Fix the spin of the system                  =   F
redata: Max. number of TDED Iter                    =        1
redata: Number of TDED substeps                     =        3
redata: Dynamics option                             = Single-point calculation
mix.SCF: Pulay mixing                            = Pulay
mix.SCF:    Variant                              = stable
mix.SCF:    History steps                        = 10
mix.SCF:    Linear mixing weight                 =     0.300000
mix.SCF:    Mixing weight                        =     0.300000
mix.SCF:    SVD condition                        = 0.1000E-07
redata: Save all siesta data in one NC              =   F
redata: ***********************************************************************

%block SCF.Mixers
  Pulay
%endblock SCF.Mixers

%block SCF.Mixer.Pulay
  # Mixing method
  method pulay
  variant stable

  # Mixing options
  weight 0.3000
  weight.linear 0.3000
  history 10
%endblock SCF.Mixer.Pulay

DM_history_depth set to one: no extrapolation allowed by default for geometry relaxation
Size of DM history Fstack: 1
Total number of electrons:    80.000000
Total ionic charge:    80.000000

* ProcessorY, Blocksize:    2   3


* Orbital distribution balance (max,min):     6     3

k-point displ. along   1 input, could be:     0.00    0.50
k-point displ. along   2 input, could be:     0.00    0.50
 Kpoints in:           24 . Kpoints trimmed:           22

siesta: k-grid: Number of k-points = 22
siesta: k-points from Monkhorst-Pack grid
siesta: k-cutoff (effective) =     9.450 Ang
siesta: k-point supercell and displacements
siesta: k-grid:     6     0     0      0.000
siesta: k-grid:     0     6     0      0.000
siesta: k-grid:     0     0     1      0.000

diag: Algorithm                                     = D&C
diag: Parallel over k                               =   T
diag: Use parallel 2D distribution                  =   T
diag: Parallel block-size                           = 3
diag: Parallel distribution                         =     4 x     8
diag: Used triangular part                          = Lower
diag: Absolute tolerance                            =  0.100E-15
diag: Orthogonalization factor                      =  0.100E-05
diag: Memory factor                                 =  1.0000
Using current reciprocal lattice vectors for BandLinesScale
Beware any cell changes by the end of the run
Using current reciprocal lattice vectors for BandLinesScale
Beware any cell changes by the end of the run

superc: Internal auxiliary supercell:     7 x     3 x     1  =      21
superc: Number of atoms, orbitals, and projectors:    126   2184   2016


ts: **************************************************************
ts: Save H and S matrices                           =    F
ts: Save DM and EDM matrices                        =    F
ts: Only save the overlap matrix S                  =    F
ts: **************************************************************

************************ Begin: TS CHECKS AND WARNINGS ************************
************************ End: TS CHECKS AND WARNINGS **************************


                     ====================================
                        Single-point calculation
                     ====================================

outcoor: Atomic coordinates (fractional):                   
    0.50000000    0.16666667    0.49808890   1       1  W
    1.00000000    0.66666667    0.49808890   1       2  W
    0.00000000    0.33333333    0.43231690   2       3  S
    0.50000000    0.83333333    0.43231690   2       4  S
    0.00000000    0.33333333    0.56386090   2       5  S
    0.50000000    0.83333333    0.56386090   2       6  S

superc: Internal auxiliary supercell:     7 x     3 x     1  =      21
superc: Number of atoms, orbitals, and projectors:    126   2184   2016

outcell: Unit cell vectors (Ang):
        3.150000    0.000000    0.000000
        0.000000    5.455960    0.000000
        0.000000    0.000000   25.000000

outcell: Cell vector modules (Ang)   :    3.150000    5.455960   25.000000
outcell: Cell angles (23,13,12) (deg):     90.0000     90.0000     90.0000
outcell: Cell volume (Ang**3)        :    429.6569
<dSpData1D:S at geom step 0
  <sparsity:sparsity for geom step 0
    nrows_g=104 nrows=6 sparsity=.3911 nnzs=4230, refcount: 7>
  <dData1D:(new from dSpData1D) n=4230, refcount: 1>
refcount: 1>
new_DM -- step:     1
Initializing Density Matrix...
DM filled with atomic data:
<dSpData2D:DM initialized from atoms
  <sparsity:sparsity for geom step 0
    nrows_g=104 nrows=6 sparsity=.3911 nnzs=4230, refcount: 8>
  <dData2D:DM n=4230 m=1, refcount: 1>
refcount: 1>
No. of atoms with KB's overlaping orbs in proc 0. Max # of overlaps:      24     260

InitMesh: MESH = 24 x 48 x 192 = 221184
InitMesh: Mesh cutoff (required, used) =   160.000   160.436 Ry
New grid distribution:   1
           1       1:   12    1:   12    1:    6
           2       1:   12    1:   12    7:   12
           3       1:   12    1:   12   13:   18
           4       1:   12    1:   12   19:   24
           5       1:   12    1:   12   25:   30
           6       1:   12    1:   12   31:   36
           7       1:   12    1:   12   37:   42
           8       1:   12    1:   12   43:   48
           9       1:   12    1:   12   49:   54
          10       1:   12    1:   12   55:   60
          11       1:   12    1:   12   61:   66
          12       1:   12    1:   12   67:   72
          13       1:   12    1:   12   73:   78
          14       1:   12    1:   12   79:   84
          15       1:   12    1:   12   85:   90
          16       1:   12    1:   12   91:   96
          17       1:   12   13:   24    1:    6
          18       1:   12   13:   24    7:   12
          19       1:   12   13:   24   13:   18
          20       1:   12   13:   24   19:   24
          21       1:   12   13:   24   25:   30
          22       1:   12   13:   24   31:   36
          23       1:   12   13:   24   37:   42
          24       1:   12   13:   24   43:   48
          25       1:   12   13:   24   49:   54
          26       1:   12   13:   24   55:   60
          27       1:   12   13:   24   61:   66
          28       1:   12   13:   24   67:   72
          29       1:   12   13:   24   73:   78
          30       1:   12   13:   24   79:   84
          31       1:   12   13:   24   85:   90
          32       1:   12   13:   24   91:   96
timer(meshCom-Ca) :   2.9802E-06  4.2487E-06  5.0068E-06
timer(BuildDISTR) :   5.2500E-04  1.0079E-02  2.6345E-02
New grid distribution:   2
           1       1:   12    1:   24    1:   38
           2       1:   12    1:   24   39:   40
           3       1:   12    1:   12   41:   42
           4       1:   12   13:   24   41:   42
           5       1:   12    1:    6   43:   45
           6       1:   12    7:   12   43:   45
           7       1:   12   13:   18   43:   45
           8       1:   12   19:   24   43:   45
           9       1:    6    1:    6   46:   48
          10       7:   12    1:    6   46:   48
          11       1:    6    7:   12   46:   48
          12       7:   12    7:   12   46:   48
          13       1:    6   13:   18   46:   48
          14       7:   12   13:   18   46:   48
          15       1:    6   19:   24   46:   48
          16       7:   12   19:   24   46:   48
          17       1:    6    1:    6   49:   51
          18       7:   12    1:    6   49:   51
          19       1:    6    7:   12   49:   51
          20       7:   12    7:   12   49:   51
          21       1:    6   13:   18   49:   51
          22       7:   12   13:   18   49:   51
          23       1:    6   19:   24   49:   51
          24       7:   12   19:   24   49:   51
          25       1:   12    1:    6   52:   54
          26       1:   12    7:   12   52:   54
          27       1:   12   13:   18   52:   54
          28       1:   12   19:   24   52:   54
          29       1:   12    1:   12   55:   56
          30       1:   12   13:   24   55:   56
          31       1:   12    1:   24   57:   58
          32       1:   12    1:   24   59:   96
timer(meshCom-Ca) :   1.9670E-06  3.3490E-06  4.0531E-06
timer(meshCom-Ca) :   1.9670E-06  3.2820E-06  4.0531E-06
timer(BuildDISTR) :   3.4803E-04  4.0110E-04  4.2599E-04
New grid distribution:   3
           1       1:   12    1:   24    1:   33
           2       1:   12    1:   24   34:   34
           3       1:   12    1:   12   35:   36
           4       1:   12   13:   24   35:   36
           5       1:   12    1:    6   37:   40
           6       1:   12    7:   12   37:   40
           7       1:   12   13:   18   37:   40
           8       1:   12   19:   24   37:   40
           9       1:    6    1:    6   41:   48
          10       7:   12    1:    6   41:   48
          11       1:    6    7:   12   41:   48
          12       7:   12    7:   12   41:   48
          13       1:    6   13:   18   41:   48
          14       7:   12   13:   18   41:   48
          15       1:    6   19:   24   41:   48
          16       7:   12   19:   24   41:   48
          17       1:    6    1:    6   49:   56
          18       7:   12    1:    6   49:   56
          19       1:    6    7:   12   49:   56
          20       7:   12    7:   12   49:   56
          21       1:    6   13:   18   49:   56
          22       7:   12   13:   18   49:   56
          23       1:    6   19:   24   49:   56
          24       7:   12   19:   24   49:   56
          25       1:   12    1:    6   57:   60
          26       1:   12    7:   12   57:   60
          27       1:   12   13:   18   57:   60
          28       1:   12   19:   24   57:   60
          29       1:   12    1:   12   61:   62
          30       1:   12   13:   24   61:   62
          31       1:   12    1:   24   63:   63
          32       1:   12    1:   24   64:   96
Setting up quadratic distribution...

stepf: Methfessel-Paxton step function
       Using Hermite-Gauss polynomials of order  1

siesta: Program's energy decomposition (eV):
siesta: Ebs     =     -3606.313846
siesta: Eions   =     21515.987724
siesta: Ena     =      3401.076952
siesta: Ekin    =      5775.360042
siesta: Enl     =     -2378.287686
siesta: Eso     =         0.000000
siesta: Edftu   =         0.000000
siesta: DEna    =       164.452727
siesta: DUscf   =        71.556383
siesta: DUext   =         0.000000
siesta: Ex      =     -1211.691218
siesta: Ec      =      -135.096087
siesta: Exc     =     -1346.787304
siesta: EbV     =         0.000000
siesta: eta*DQ  =         0.000000
siesta: Emadel  =         0.000000
siesta: Emeta   =         0.000000
siesta: Emolmec =         0.000000
siesta: Ekinion =         0.000000
siesta: Eharris =    -15746.378701
siesta: Etot    =    -15828.616611
siesta: FreeEng =    -15828.616611

        iscf     Eharris(eV)        E_KS(eV)     FreeEng(eV)     dDmax    Ef(eV) dHmax(eV)
   scf:    1   -15746.378701   -15828.616611   -15828.616611  0.988849 -0.236646 40.068001
timer(IterSCF   ) :   7.9770E-02  8.0197E-02  8.0621E-02
   scf:    2   -15775.167715   -15857.070738   -15857.070738  0.616384 -6.252288 21.819595
   scf:    3   -15876.761669   -15878.027139   -15878.027139  0.281304 -3.416813  4.400911
   scf:    4   -15873.277162   -15877.255349   -15877.255349  0.152201 -3.732676  6.109544
   scf:    5   -15879.041570   -15878.244759   -15878.244759  0.028830 -3.444524  3.668776
   scf:    6   -15879.033716   -15878.855841   -15878.855841  0.035551 -3.130869  0.299278
   scf:    7   -15878.860462   -15878.858867   -15878.858867  0.002534 -3.106467  0.097368
   scf:    8   -15878.835097   -15878.851585   -15878.851585  0.007037 -3.038765  0.454221
   scf:    9   -15878.859780   -15878.859207   -15878.859207  0.004961 -3.096754  0.019176
   scf:   10   -15878.859241   -15878.859248   -15878.859248  0.000341 -3.095811  0.004612
   scf:   11   -15878.859251   -15878.859250   -15878.859250  0.000083 -3.095489  0.002001
   scf:   12   -15878.859250   -15878.859250   -15878.859250  0.000027 -3.095698  0.000266
   scf:   13   -15878.859250   -15878.859250   -15878.859250  0.000002 -3.095677  0.000089
   scf:   14   -15878.859250   -15878.859250   -15878.859250  0.000001 -3.095673  0.000060
   scf:   15   -15878.859250   -15878.859250   -15878.859250  0.000001 -3.095667  0.000002
   scf:   16   -15878.859250   -15878.859250   -15878.859250  0.000000 -3.095668  0.000000
   scf:   17   -15878.859250   -15878.859250   -15878.859250  0.000000 -3.095668  0.000000
   scf:   18   -15878.859250   -15878.859250   -15878.859250  0.000000 -3.095668  0.000000

SCF Convergence by DM+H criterion
max |DM_out - DM_in|         :     0.0000000022
max |H_out - H_in|      (eV) :     0.0000000418
SCF cycle converged after 18 iterations

Using DM_out to compute the final energy and forces
 E_bs from EDM:  -2090.3156995666568     
No. of atoms with KB's overlaping orbs in proc 0. Max # of overlaps:      24     260

siesta: E_KS(eV) =           -15878.8592

siesta: E_KS - E_eggbox =    -15878.8592

siesta: Atomic forces (eV/Ang):
     1    0.000000    0.011631    0.038737
     2   -0.000000    0.011631    0.038737
     3   -0.000000    0.011596    1.498508
     4    0.000000    0.011596    1.498508
     5   -0.000000    0.032231   -1.464532
     6    0.000000    0.032231   -1.464532
----------------------------------------
   Tot    0.000000    0.110918    0.145426
----------------------------------------
   Max    1.498508
   Res    0.698664    sqrt( Sum f_i^2 / 3N )
----------------------------------------
   Max    1.498508    constrained

Stress tensor Voigt[x,y,z,yz,xz,xy] (kbar):       27.43       23.45       36.74       -0.74        0.00       -0.00
(Free)E + p*V (eV/cell)   -15886.6913
Target enthalpy (eV/cell)   -15878.8592

mulliken: Atomic and Orbital Populations:

Species: W                   
Atom  Qatom  Qorb
               5s      6s      6s      5py     5pz     5px     5dxy    5dyz    
               5dz2    5dxz    5dx2-y2 5dxy    5dyz    5dz2    5dxz    5dx2-y2 
               4fy(3x2-4fxyz   4fz2y   4fz3    4fz2x   4fz(x2-y4fx(x2-36Ppy    
               6Ppz    6Ppx    
   1 27.422   1.991   1.028  -0.456   1.976   1.968   1.977   0.917   0.703
              0.918   0.705   0.917  -0.020   0.080   0.007   0.079  -0.019

              1.998   1.996   1.997   1.998   1.997   1.996   1.997   0.223

              0.227   0.224
   2 27.422   1.991   1.028  -0.456   1.976   1.968   1.977   0.917   0.703
              0.918   0.705   0.917  -0.020   0.080   0.007   0.079  -0.019

              1.998   1.996   1.997   1.998   1.997   1.996   1.997   0.223

              0.227   0.224

Species: S                   
Atom  Qatom  Qorb
               3s      3s      3py     3pz     3px     3py     3pz     3px     
               3Pdxy   3Pdyz   3Pdz2   3Pdxz   3Pdx2-y2
   3  6.289   1.490   0.260   1.382   1.588   1.381   0.005  -0.081   0.007
              0.051   0.051   0.052   0.051   0.051
   4  6.289   1.490   0.260   1.382   1.588   1.381   0.005  -0.081   0.007
              0.051   0.051   0.052   0.051   0.051
   5  6.289   1.490   0.260   1.381   1.588   1.381   0.006  -0.081   0.007
              0.051   0.051   0.052   0.051   0.051
   6  6.289   1.490   0.260   1.381   1.588   1.381   0.006  -0.081   0.007
              0.051   0.051   0.052   0.051   0.051

mulliken: Qtot =       80.000
Computing bands...
*** Note: ParallelOverK option not used for Bands

diag: Algorithm                                     = D&C
diag: Parallel over k                               =   F
diag: Use parallel 2D distribution                  =   T
diag: Parallel block-size                           = 3
diag: Parallel distribution                         =     4 x     8
diag: Used triangular part                          = Lower
diag: Absolute tolerance                            =  0.100E-15
diag: Orthogonalization factor                      =  0.100E-05
diag: Memory factor                                 =  1.0000

siesta: Eigenvalues (eV):
  ik is       eps
   1  1  -78.4565  -78.4396  -42.7400  -42.7124  -42.6964  -42.6760  -42.6528  -42.5664  -32.6846  -32.6819
         -32.6787  -32.6728  -32.6274  -32.6273  -32.6268  -32.6267  -32.6250  -32.6146  -32.6130  -32.6044
  -32.5848  -32.5798  -17.8185  -17.1051  -16.5196  -16.5143  -10.1587   -9.7229   -9.6336   -8.8976
   -8.8788   -8.3108   -8.2748   -7.8369   -7.7969   -7.0505   -6.4993   -5.8739   -5.3405   -4.4538
   -2.5802   -2.2698   -1.6453   -1.4193   -1.4167   -0.6404   -0.0028    1.0030    3.0807    3.3263
    4.0531    6.3516    6.5922    6.6970    7.1432    7.6030    7.6607    8.1178    8.2802    8.8689
    9.0344    9.1098    9.2684    9.3935   10.9310   11.0415   11.3648   12.0645   12.0696   14.6952
   15.0847   15.2172   15.4153   17.9563   18.9986   19.7766   20.5478   20.9356   22.3666   22.7246
   24.1538   24.5758   25.6900   28.6877   29.3691   29.8522   30.0867   30.4650   31.9278   33.1476
   33.9395   35.2653   36.5258   36.9968   37.0395   37.5690   40.2020   40.4005   50.7123   51.5129
   56.5205   58.3766   65.5927   66.2497
   2  1  -78.4712  -78.4415  -42.7970  -42.6952  -42.6560  -42.6286  -42.5653  -42.5171  -32.6880  -32.6869
         -32.6832  -32.6716  -32.6265  -32.6254  -32.6237  -32.6228  -32.6216  -32.6190  -32.6058  -32.6051
  -32.5893  -32.5805  -18.6707  -17.4674  -16.7033  -16.6226  -10.4710  -10.4024   -9.8806   -8.7077
   -7.8654   -7.7392   -7.3797   -7.1318   -6.8148   -6.6348   -6.3689   -5.6307   -4.9735   -4.8447
   -2.0937   -1.7782   -1.7765   -1.6172   -0.8898   -0.8891   -0.8864    0.3848    2.1071    4.1526
    4.8644    5.5678    6.0795    6.3366    6.5879    6.7281    7.7676    7.8592    7.9530    8.1392
    9.4566    9.9418   10.5344   10.9049   11.1330   11.4734   11.7883   12.1503   12.1653   13.6921
   14.0503   14.3076   16.3058   17.9562   18.7345   19.2764   20.0691   21.0849   21.7400   24.0207
   24.0293   25.2676   26.5407   28.1754   28.3233   29.0637   29.1477   30.5016   31.2350   33.0071
   33.3800   35.5346   37.4177   37.4705   38.0380   38.7889   39.2510   43.2996   47.3399   48.6167
   56.6518   56.8116   61.1728   75.8503
   3  1  -78.4783  -78.4426  -42.8226  -42.7035  -42.6584  -42.5786  -42.4998  -42.4990  -32.6912  -32.6910
         -32.6844  -32.6705  -32.6279  -32.6253  -32.6208  -32.6204  -32.6203  -32.6100  -32.6057  -32.6011
  -32.5912  -32.5810  -18.9902  -17.5987  -16.8506  -16.7132  -10.8842  -10.8241   -9.7124   -8.8539
   -7.6157   -6.9649   -6.9649   -6.8183   -6.7248   -5.7092   -5.7078   -5.4554   -5.4019   -4.8019
   -1.5272   -1.5245   -1.4847   -1.4312   -1.4278   -1.1778   -0.2896    0.0233    1.6124    3.0158
    3.7127    4.4847    5.3296    6.6606    6.8561    7.1091    7.1117    7.2884    7.7314    9.2963
    9.2978    9.9301   11.3592   11.7892   12.3361   12.6164   13.2223   13.2231   13.2440   13.2446
   13.7603   14.9099   15.4640   15.7145   16.4993   18.5301   21.0010   21.2240   24.2971   24.5313
   24.8003   24.8236   24.9594   26.9451   27.9614   27.9654   28.2912   31.8590   31.8863   33.6318
   34.7400   36.0032   36.8974   36.8998   38.9348   40.9367   46.0112   46.0119   46.2926   47.9948
   48.1695   56.3094   60.6640   93.8264
   4  1  -78.4444  -78.4444  -42.7635  -42.7635  -42.6587  -42.6587  -42.6402  -42.6402  -32.6828  -32.6828
         -32.6733  -32.6733  -32.6267  -32.6267  -32.6260  -32.6260  -32.6169  -32.6169  -32.6063  -32.6063
  -32.5810  -32.5810  -16.8861  -16.8861  -16.6908  -16.6908  -10.0475  -10.0475   -9.6347   -9.6347
   -8.4923   -8.4923   -8.0655   -8.0655   -7.6901   -7.6901   -6.5364   -6.5364   -5.0028   -5.0028
   -2.1000   -2.1000   -1.2213   -1.2213   -0.9813   -0.9813    0.5697    0.5697    3.0604    3.0604
    4.7485    4.7485    6.3423    6.3423    7.3107    7.3107    7.4500    7.4500    8.2354    8.2354
    9.0165    9.0165    9.4638    9.4638   11.5052   11.5052   11.8510   11.8510   14.7921   14.7921
   15.1584   15.1584   18.5337   18.5337   18.8126   18.8126   20.3408   20.3408   22.0268   22.0268
   23.4180   23.4180   26.6940   26.6940   29.5037   29.5037   30.3906   30.3906   31.5861   31.5861
   34.3500   34.3500   36.3926   36.3926   40.0360   40.0360   40.8919   40.8919   56.0122   56.0122
   56.4403   56.4403   76.4171   76.4171
   5  1  -78.4551  -78.4409  -42.7669  -42.7148  -42.6743  -42.6720  -42.6544  -42.5617  -32.6845  -32.6824
         -32.6781  -32.6726  -32.6279  -32.6272  -32.6262  -32.6249  -32.6230  -32.6141  -32.6128  -32.6048
  -32.5845  -32.5801  -17.7423  -17.0744  -16.6175  -16.5663  -10.0439  -10.0128   -9.7808   -8.8871
   -8.6217   -8.6165   -8.0108   -7.9009   -7.4853   -6.8789   -6.2494   -6.1488   -5.4371   -4.6773
   -2.3915   -2.0594   -1.7141   -1.2828   -1.1482   -0.7690   -0.0867    0.7984    2.6915    3.6731
    4.0681    5.3021    5.8838    6.5815    7.2912    7.4626    7.8991    7.9228    8.3049    8.7168
    9.1734    9.5279    9.6903   10.0359   11.0221   11.2517   11.5522   12.0611   12.5715   14.2446
   14.9204   14.9998   15.6788   18.0624   19.4551   20.2024   20.7943   20.9477   20.9723   22.2072
   23.9835   25.2255   25.9625   28.4371   29.3510   29.4596   29.7085   30.1625   31.9056   32.9980
   34.9896   35.0321   36.0061   36.4585   38.4744   38.6366   39.3308   40.8054   49.6967   52.1428
   56.5314   57.8924   67.1426   69.3834
   6  1  -78.4689  -78.4436  -42.7838  -42.6927  -42.6587  -42.6202  -42.5865  -42.5210  -32.6868  -32.6863
         -32.6833  -32.6726  -32.6274  -32.6252  -32.6237  -32.6227  -32.6219  -32.6164  -32.6070  -32.6061
  -32.5887  -32.5811  -18.5669  -17.4242  -16.8780  -16.6969  -10.3108  -10.2804   -9.6584   -8.6491
   -7.9558   -7.9468   -7.5844   -7.1268   -6.6176   -6.5183   -6.3494   -5.8370   -5.0584   -5.0087
   -2.1782   -1.9500   -1.8252   -1.5196   -1.0235   -0.9634   -0.8169    0.3624    2.5803    4.2104
    5.0597    5.5490    6.0768    6.2831    6.7742    7.0045    7.8352    8.0361    8.0984    8.3691
    9.6200    9.7254   10.0351   10.0413   10.4869   11.8567   11.9046   12.0228   12.0953   13.8253
   13.9566   14.3249   15.4745   18.3749   18.6488   19.1261   20.4799   21.4795   21.5280   23.7285
   23.9426   26.1707   26.6857   28.4072   28.7651   29.1672   29.7437   30.5018   30.8274   32.2861
   33.6974   35.4887   36.2479   36.6983   37.7234   39.7226   40.3691   42.0359   47.3224   48.9088
   55.8529   56.2099   61.5867   78.8883
   7  1  -78.4755  -78.4447  -42.8052  -42.7006  -42.6616  -42.5746  -42.5235  -42.5048  -32.6899  -32.6895
         -32.6843  -32.6721  -32.6270  -32.6269  -32.6217  -32.6217  -32.6209  -32.6130  -32.6071  -32.6027
  -32.5906  -32.5817  -18.8837  -17.5549  -17.0483  -16.7908  -10.6778  -10.6408   -9.5133   -8.8283
   -7.5241   -7.2540   -7.0010   -6.8452   -6.7566   -5.9004   -5.6748   -5.6197   -5.4681   -4.8488
   -1.7737   -1.6289   -1.6199   -1.5261   -1.4802   -1.2363   -0.4061   -0.0122    2.1450    3.4998
    3.8906    4.6407    5.7297    6.4635    6.9265    7.1497    7.4552    7.8095    8.0515    8.5428
    9.3873   10.3676   10.8320   11.0639   11.7895   12.2576   12.4005   12.8921   13.3939   13.6959
   13.7660   14.2510   14.3949   15.4392   17.5312   19.6323   21.0242   21.1335   22.9342   24.5452
   25.1341   25.3633   25.9981   27.4157   28.1371   28.2867   29.1190   31.1242   31.6176   33.0766
   33.3669   35.5309   36.4054   37.0300   38.3350   38.4797   44.8513   46.6105   46.7420   48.0469
   48.0591   55.6329   60.7401   83.5811
   8  1  -78.4689  -78.4436  -42.7838  -42.6927  -42.6587  -42.6202  -42.5865  -42.5210  -32.6868  -32.6863
         -32.6833  -32.6726  -32.6274  -32.6252  -32.6237  -32.6227  -32.6219  -32.6164  -32.6070  -32.6061
  -32.5887  -32.5811  -18.5669  -17.4242  -16.8780  -16.6969  -10.3108  -10.2804   -9.6584   -8.6491
   -7.9558   -7.9468   -7.5844   -7.1268   -6.6176   -6.5183   -6.3494   -5.8370   -5.0584   -5.0087
   -2.1782   -1.9500   -1.8252   -1.5196   -1.0235   -0.9634   -0.8169    0.3624    2.5803    4.2104
    5.0597    5.5490    6.0768    6.2831    6.7742    7.0045    7.8352    8.0361    8.0984    8.3691
    9.6200    9.7254   10.0351   10.0413   10.4869   11.8567   11.9046   12.0228   12.0953   13.8253
   13.9566   14.3249   15.4745   18.3749   18.6488   19.1261   20.4799   21.4795   21.5280   23.7285
   23.9426   26.1707   26.6857   28.4072   28.7651   29.1672   29.7437   30.5018   30.8274   32.2861
   33.6974   35.4887   36.2479   36.6983   37.7234   39.7226   40.3691   42.0359   47.3224   48.9088
   55.8529   56.2099   61.5867   78.8883
   9  1  -78.4551  -78.4409  -42.7669  -42.7148  -42.6743  -42.6720  -42.6544  -42.5617  -32.6845  -32.6824
         -32.6781  -32.6726  -32.6279  -32.6272  -32.6262  -32.6249  -32.6230  -32.6141  -32.6128  -32.6048
  -32.5845  -32.5801  -17.7423  -17.0744  -16.6175  -16.5663  -10.0439  -10.0128   -9.7808   -8.8871
   -8.6217   -8.6165   -8.0108   -7.9009   -7.4853   -6.8789   -6.2494   -6.1488   -5.4371   -4.6773
   -2.3915   -2.0594   -1.7141   -1.2828   -1.1482   -0.7690   -0.0867    0.7984    2.6915    3.6731
    4.0681    5.3021    5.8838    6.5815    7.2912    7.4626    7.8991    7.9228    8.3049    8.7168
    9.1734    9.5279    9.6903   10.0359   11.0221   11.2517   11.5522   12.0611   12.5715   14.2446
   14.9204   14.9998   15.6788   18.0624   19.4551   20.2024   20.7943   20.9477   20.9723   22.2072
   23.9835   25.2255   25.9625   28.4371   29.3510   29.4596   29.7085   30.1625   31.9056   32.9980
   34.9896   35.0321   36.0061   36.4585   38.4744   38.6366   39.3308   40.8054   49.6967   52.1428
   56.5314   57.8924   67.1426   69.3834
  10  1  -78.4442  -78.4442  -42.7829  -42.7829  -42.6587  -42.6587  -42.6207  -42.6207  -32.6833  -32.6833
         -32.6725  -32.6725  -32.6274  -32.6274  -32.6240  -32.6240  -32.6160  -32.6160  -32.6061  -32.6061
  -32.5810  -32.5810  -16.8772  -16.8772  -16.6962  -16.6962  -10.3115  -10.3115   -9.6604   -9.6604
   -8.6489   -8.6489   -7.9472   -7.9472   -7.1279   -7.1279   -6.6180   -6.6180   -5.0090   -5.0090
   -1.9508   -1.9508   -1.0201   -1.0201   -0.9641   -0.9641    0.3636    0.3636    2.5890    2.5890
    5.0570    5.0570    5.5478    5.5478    6.7745    6.7745    7.0052    7.0052    8.0361    8.0361
   10.0359   10.0359   10.4913   10.4913   11.8622   11.8622   12.0968   12.0968   14.3263   14.3263
   15.4792   15.4792   18.3814   18.3814   18.6464   18.6464   20.4835   20.4835   21.5319   21.5319
   23.9409   23.9409   26.1787   26.1787   28.4106   28.4106   29.7354   29.7354   32.3099   32.3099
   36.2445   36.2445   36.6751   36.6751   39.7687   39.7687   40.3622   40.3622   55.8534   55.8534
   56.2223   56.2223   78.5714   78.5714
  11  1  -78.4517  -78.4442  -42.7830  -42.7507  -42.6700  -42.6587  -42.6206  -42.5619  -32.6844  -32.6833
         -32.6761  -32.6726  -32.6285  -32.6273  -32.6246  -32.6241  -32.6165  -32.6141  -32.6111  -32.6061
  -32.5835  -32.5810  -17.5265  -16.9858  -16.8775  -16.6964  -10.3106  -10.0754   -9.6596   -8.9839
   -8.8719   -8.6488   -7.9469   -7.2585   -7.1285   -6.6182   -6.5584   -5.7567   -5.6967   -5.0083
   -1.9602   -1.9491   -1.8796   -1.0236   -0.9636   -0.7460   -0.1434    0.3624    2.5879    3.0951
    4.4904    5.0598    5.2431    5.5488    6.7727    7.0048    7.6349    7.7754    8.0362    8.8479
   10.0391   10.2052   10.4914   10.5008   11.3715   11.8572   12.0964   12.4030   13.3814   13.7901
   14.3244   14.9142   15.4756   18.3773   18.6468   20.4809   20.7600   21.0686   21.2137   21.5327
   23.9415   26.0751   26.1809   27.1021   28.4108   28.6471   29.7436   30.6553   32.0235   32.3274
   34.5607   36.2440   36.6492   36.9219   37.1361   39.7518   40.3649   43.0816   48.0236   53.4239
   55.8538   56.2184   70.1852   78.6900
  12  1  -78.4630  -78.4489  -42.7491  -42.6857  -42.6660  -42.6372  -42.5971  -42.5375  -32.6858  -32.6837
         -32.6828  -32.6751  -32.6270  -32.6266  -32.6248  -32.6236  -32.6187  -32.6155  -32.6101  -32.6091
  -32.5871  -32.5827  -18.2678  -17.3087  -17.2983  -16.8831   -9.9481   -9.9167   -9.0538   -8.7194
   -8.4531   -8.0239   -7.9206   -7.0365   -6.9345   -6.3370   -6.2174   -5.7852   -5.2663   -5.2323
   -2.3948   -2.3691   -1.8679   -1.5142   -1.2970   -1.1741   -0.4243    0.2535    3.4147    4.3075
    5.8024    5.8150    6.2189    6.3260    7.2326    7.3270    7.5934    8.1146    8.3033    8.3781
    9.0394    9.1726    9.2697    9.6922   10.6490   11.2982   11.7151   11.9603   12.1807   13.5787
   14.2139   14.2651   14.8794   16.6220   19.2013   20.0591   20.7025   21.0860   22.2238   23.1982
   24.6258   26.4263   27.8968   29.1804   29.4633   30.0378   30.1735   30.2789   30.4440   31.8862
   33.9984   34.4955   34.5448   36.3634   38.8066   39.9639   40.8724   40.9703   48.3313   49.3228
   53.5105   54.5249   62.9488   74.4948
  13  1  -78.4681  -78.4505  -42.7519  -42.6927  -42.6700  -42.5875  -42.5614  -42.5204  -32.6868  -32.6864
         -32.6843  -32.6762  -32.6285  -32.6252  -32.6245  -32.6225  -32.6221  -32.6137  -32.6111  -32.6068
  -32.5887  -32.5836  -18.5670  -17.5271  -17.4241  -16.9862  -10.2805  -10.0757   -8.9826   -8.8723
   -7.9565   -7.5843   -7.2573   -6.5583   -6.5177   -6.3483   -5.8374   -5.7583   -5.6941   -5.0592
   -2.1796   -1.9619   -1.8783   -1.8231   -1.5214   -0.8144   -0.7472   -0.1411    3.0845    4.2077
    4.4887    5.2426    6.0739    6.2814    7.6341    7.7704    7.8350    8.0968    8.3704    8.8525
    9.6187    9.7257   10.0424   10.2029   10.4967   11.3701   11.9023   12.0241   12.4005   13.3782
   13.7888   13.8256   13.9558   14.9129   19.1254   20.7585   21.0655   21.2127   21.4711   23.7362
   26.0748   26.6904   27.0798   28.6419   28.7671   29.1791   30.5008   30.6541   30.8023   32.0230
   33.6359   34.4842   35.4867   36.9169   37.1779   37.7313   42.0406   43.0948   47.3248   48.0259
   48.9177   53.4096   61.6841   70.4758
  14  1  -78.4630  -78.4489  -42.7491  -42.6857  -42.6660  -42.6372  -42.5971  -42.5375  -32.6858  -32.6837
         -32.6828  -32.6751  -32.6270  -32.6266  -32.6248  -32.6236  -32.6187  -32.6155  -32.6101  -32.6091
  -32.5871  -32.5827  -18.2678  -17.3087  -17.2983  -16.8831   -9.9481   -9.9167   -9.0538   -8.7194
   -8.4531   -8.0239   -7.9206   -7.0365   -6.9345   -6.3370   -6.2174   -5.7852   -5.2663   -5.2323
   -2.3948   -2.3691   -1.8679   -1.5142   -1.2970   -1.1741   -0.4243    0.2535    3.4147    4.3075
    5.8024    5.8150    6.2189    6.3260    7.2326    7.3270    7.5934    8.1146    8.3033    8.3781
    9.0394    9.1726    9.2697    9.6922   10.6490   11.2982   11.7151   11.9603   12.1807   13.5787
   14.2139   14.2651   14.8794   16.6220   19.2013   20.0591   20.7025   21.0860   22.2238   23.1982
   24.6258   26.4263   27.8968   29.1804   29.4633   30.0378   30.1735   30.2789   30.4440   31.8862
   33.9984   34.4955   34.5448   36.3634   38.8066   39.9639   40.8724   40.9703   48.3313   49.3228
   53.5105   54.5249   62.9488   74.4948
  15  1  -78.4517  -78.4442  -42.7830  -42.7507  -42.6700  -42.6587  -42.6206  -42.5619  -32.6844  -32.6833
         -32.6761  -32.6726  -32.6285  -32.6273  -32.6246  -32.6241  -32.6165  -32.6141  -32.6111  -32.6061
  -32.5835  -32.5810  -17.5265  -16.9858  -16.8775  -16.6964  -10.3106  -10.0754   -9.6596   -8.9839
   -8.8719   -8.6488   -7.9469   -7.2585   -7.1285   -6.6182   -6.5584   -5.7567   -5.6967   -5.0083
   -1.9602   -1.9491   -1.8796   -1.0236   -0.9636   -0.7460   -0.1434    0.3624    2.5879    3.0951
    4.4904    5.0598    5.2431    5.5488    6.7727    7.0048    7.6349    7.7754    8.0362    8.8479
   10.0391   10.2052   10.4914   10.5008   11.3715   11.8572   12.0964   12.4030   13.3814   13.7901
   14.3244   14.9142   15.4756   18.3773   18.6468   20.4809   20.7600   21.0686   21.2137   21.5327
   23.9415   26.0751   26.1809   27.1021   28.4108   28.6471   29.7436   30.6553   32.0235   32.3274
   34.5607   36.2440   36.6492   36.9219   37.1361   39.7518   40.3649   43.0816   48.0236   53.4239
   55.8538   56.2184   70.1852   78.6900
  16  1  -78.4441  -78.4441  -42.8109  -42.8109  -42.6586  -42.6586  -42.5914  -42.5914  -32.6841  -32.6841
         -32.6711  -32.6711  -32.6261  -32.6261  -32.6219  -32.6219  -32.6129  -32.6129  -32.6058  -32.6058
  -32.5809  -32.5809  -16.8589  -16.8589  -16.7070  -16.7070  -10.7173  -10.7173   -9.6997   -9.6997
   -8.7984   -8.7984   -7.7216   -7.7216   -6.7610   -6.7610   -6.1772   -6.1772   -5.0912   -5.0912
   -1.6383   -1.6383   -1.1196   -1.1196   -0.3867   -0.3867   -0.0378   -0.0378    1.9123    1.9123
    4.3062    4.3062    4.8144    4.8144    6.6726    6.6726    6.7510    6.7510    7.7755    7.7755
   11.0913   11.0913   11.8551   11.8551   12.3455   12.3455   13.3652   13.3652   13.8203   13.8203
   15.5714   15.5714   17.1634   17.1634   18.6912   18.6912   20.8065   20.8065   21.1460   21.1460
   24.6692   24.6692   24.9697   24.9697   27.3070   27.3070   28.7386   28.7386   33.3692   33.3692
   36.5072   36.5072   38.5103   38.5103   39.6126   39.6126   42.7462   42.7463   53.2092   53.2092
   56.3336   56.3336   85.9374   85.9374
  17  1  -78.4480  -78.4480  -42.7775  -42.7775  -42.6644  -42.6644  -42.5812  -42.5812  -32.6841  -32.6841
         -32.6738  -32.6738  -32.6279  -32.6279  -32.6235  -32.6235  -32.6147  -32.6147  -32.6084  -32.6084
  -32.5822  -32.5822  -17.2132  -17.2132  -16.8513  -16.8513  -10.2994  -10.2994   -9.2961   -9.2961
   -8.7829   -8.7829   -7.6733   -7.6733   -6.5244   -6.5244   -6.2838   -6.2838   -5.2856   -5.2856
   -2.0410   -2.0410   -1.4051   -1.4051   -0.7245   -0.7245    0.0395    0.0395    2.7712    2.7712
    4.5844    4.5844    5.1353    5.1353    7.2307    7.2307    7.2387    7.2387    8.2498    8.2498
   10.2625   10.2625   10.7282   10.7282   11.9231   11.9231   13.0796   13.0796   13.5099   13.5099
   14.3510   14.3510   16.1232   16.1232   19.8222   19.8222   21.1187   21.1187   21.3286   21.3286
   25.2307   25.2307   26.4321   26.4321   28.1230   28.1230   29.8596   29.8596   32.5195   32.5195
   36.0721   36.0721   36.9045   36.9045   37.9116   37.9116   42.3330   42.3330   51.5483   51.5483
   55.0424   55.0424   76.9350   76.9350
  18  1  -78.4557  -78.4557  -42.6973  -42.6973  -42.6759  -42.6759  -42.5659  -42.5659  -32.6846  -32.6846
         -32.6787  -32.6787  -32.6274  -32.6274  -32.6247  -32.6247  -32.6145  -32.6145  -32.6130  -32.6130
  -32.5849  -32.5849  -17.8190  -17.8190  -17.1054  -17.1054   -9.6328   -9.6328   -8.8794   -8.8794
   -8.3093   -8.3093   -7.8367   -7.8367   -6.4996   -6.4996   -5.8736   -5.8736   -5.3403   -5.3403
   -2.5798   -2.5798   -1.6470   -1.6470   -1.4175   -1.4175   -0.0023   -0.0023    4.0484    4.0484
    6.3522    6.3522    6.5943    6.5943    7.1434    7.1434    7.6026    7.6026    8.1150    8.1150
    8.8673    8.8673    9.2680    9.2680   11.3622   11.3622   12.0602   12.0602   12.0682   12.0682
   14.6940   14.6940   15.0824   15.0824   19.7770   19.7770   20.9321   20.9321   22.7281   22.7281
   25.6884   25.6884   29.3604   29.3604   29.8419   29.8419   30.0800   30.0800   31.9482   31.9482
   33.1507   33.1507   35.2359   35.2359   40.2033   40.2033   40.3754   40.3754   50.7159   50.7159
   51.5105   51.5105   66.4583   66.4583
  19  1  -78.4589  -78.4589  -42.6815  -42.6815  -42.6720  -42.6720  -42.5414  -42.5414  -32.6850  -32.6850
         -32.6815  -32.6815  -32.6274  -32.6274  -32.6243  -32.6243  -32.6168  -32.6168  -32.6111  -32.6111
  -32.5862  -32.5862  -18.0837  -18.0837  -17.2207  -17.2207   -9.8487   -9.8487   -8.7070   -8.7070
   -8.2827   -8.2827   -6.8439   -6.8439   -6.2162   -6.2162   -6.0824   -6.0824   -5.4762   -5.4762
   -2.2592   -2.2592   -1.9570   -1.9570   -1.1989   -1.1989   -0.4081   -0.4081    3.8820    3.8820
    5.4742    5.4742    6.0200    6.0200    8.1886    8.1886    8.3871    8.3871    9.2366    9.2366
    9.3017    9.3017    9.3169    9.3169   10.4108   10.4108   11.3458   11.3458   12.4673   12.4673
   13.8881   13.8881   14.3638   14.3638   20.3814   20.3814   20.8155   20.8155   22.5765   22.5765
   26.5909   26.5909   29.2083   29.2083   29.9500   29.9500   30.2250   30.2250   30.4410   30.4410
   34.4074   34.4074   35.5682   35.5682   38.9903   38.9903   39.7266   39.7266   47.7371   47.7371
   50.3094   50.3094   64.2609   64.2609
  20  1  -78.4557  -78.4557  -42.6973  -42.6973  -42.6759  -42.6759  -42.5659  -42.5659  -32.6846  -32.6846
         -32.6787  -32.6787  -32.6274  -32.6274  -32.6247  -32.6247  -32.6145  -32.6145  -32.6130  -32.6130
  -32.5849  -32.5849  -17.8190  -17.8190  -17.1054  -17.1054   -9.6328   -9.6328   -8.8794   -8.8794
   -8.3093   -8.3093   -7.8367   -7.8367   -6.4996   -6.4996   -5.8736   -5.8736   -5.3403   -5.3403
   -2.5798   -2.5798   -1.6470   -1.6470   -1.4175   -1.4175   -0.0023   -0.0023    4.0484    4.0484
    6.3522    6.3522    6.5943    6.5943    7.1434    7.1434    7.6026    7.6026    8.1150    8.1150
    8.8673    8.8673    9.2680    9.2680   11.3622   11.3622   12.0602   12.0602   12.0682   12.0682
   14.6940   14.6940   15.0824   15.0824   19.7770   19.7770   20.9321   20.9321   22.7281   22.7281
   25.6884   25.6884   29.3604   29.3604   29.8419   29.8419   30.0800   30.0800   31.9482   31.9482
   33.1507   33.1507   35.2359   35.2359   40.2033   40.2033   40.3754   40.3754   50.7159   50.7159
   51.5105   51.5105   66.4583   66.4583
  21  1  -78.4480  -78.4480  -42.7775  -42.7775  -42.6644  -42.6644  -42.5812  -42.5812  -32.6841  -32.6841
         -32.6738  -32.6738  -32.6279  -32.6279  -32.6235  -32.6235  -32.6147  -32.6147  -32.6084  -32.6084
  -32.5822  -32.5822  -17.2132  -17.2132  -16.8513  -16.8513  -10.2994  -10.2994   -9.2961   -9.2961
   -8.7829   -8.7829   -7.6733   -7.6733   -6.5244   -6.5244   -6.2838   -6.2838   -5.2856   -5.2856
   -2.0410   -2.0410   -1.4051   -1.4051   -0.7245   -0.7245    0.0395    0.0395    2.7712    2.7712
    4.5844    4.5844    5.1353    5.1353    7.2307    7.2307    7.2387    7.2387    8.2498    8.2498
   10.2625   10.2625   10.7282   10.7282   11.9231   11.9231   13.0796   13.0796   13.5099   13.5099
   14.3510   14.3510   16.1232   16.1232   19.8222   19.8222   21.1187   21.1187   21.3286   21.3286
   25.2307   25.2307   26.4321   26.4321   28.1230   28.1230   29.8596   29.8596   32.5195   32.5195
   36.0721   36.0721   36.9045   36.9045   37.9116   37.9116   42.3330   42.3330   51.5483   51.5483
   55.0424   55.0424   76.9350   76.9350
  22  1  -78.4442  -78.4442  -42.8216  -42.8216  -42.6585  -42.6585  -42.5791  -42.5791  -32.6844  -32.6844
         -32.6704  -32.6704  -32.6251  -32.6251  -32.6210  -32.6210  -32.6098  -32.6098  -32.6057  -32.6057
  -32.5808  -32.5808  -16.8495  -16.8495  -16.7123  -16.7123  -10.8843  -10.8843   -9.7145   -9.7145
   -8.8537   -8.8537   -7.6169   -7.6169   -6.8185   -6.8185   -5.4548   -5.4548   -5.4059   -5.4059
   -1.4856   -1.4856   -1.1761   -1.1761   -0.2889   -0.2889    0.0211    0.0211    1.6285    1.6285
    3.7149    3.7149    4.4871    4.4871    6.6617    6.6617    6.8603    6.8603    7.7258    7.7258
   11.3621   11.3621   12.3397   12.3397   12.6180   12.6180   13.7640   13.7640   14.9164   14.9164
   15.4676   15.4676   15.7187   15.7187   18.5377   18.5377   21.0037   21.0037   21.2255   21.2255
   24.3149   24.3149   24.9567   24.9567   26.9483   26.9483   28.2882   28.2882   33.5819   33.5819
   36.1092   36.1092   38.9423   38.9423   40.9359   40.9359   47.9895   47.9895   48.1529   48.1529
   56.3317   56.3317   93.2982   93.2982
siesta: Fermi energy =      -3.095668 eV

siesta: Program's energy decomposition (eV):
siesta: Ebs     =     -2090.315701
siesta: Eions   =     21515.987724
siesta: Ena     =      3401.076952
siesta: Ekin    =      5897.164228
siesta: Enl     =     -2394.485303
siesta: Eso     =         0.000000
siesta: Edftu   =         0.000000
siesta: DEna    =       109.535956
siesta: DUscf   =         6.129085
siesta: DUext   =         0.000000
siesta: Ex      =     -1245.915361
siesta: Ec      =      -136.377083
siesta: Exc     =     -1382.292444
siesta: EbV     =         0.000000
siesta: eta*DQ  =         0.000000
siesta: Emadel  =         0.000000
siesta: Emeta   =         0.000000
siesta: Emolmec =         0.000000
siesta: Ekinion =         0.000000
siesta: Eharris =    -15878.859250
siesta: Etot    =    -15878.859250
siesta: FreeEng =    -15878.859250

siesta: Final energy (eV):
siesta:  Band Struct. =   -2090.315701
siesta:       Kinetic =    5897.164228
siesta:       Hartree =   55058.512262
siesta:         Edftu =       0.000000
siesta:       Eso     =       0.000000
siesta:    Ext. field =       0.000000
siesta:         Exch. =   -1245.915361
siesta:         Corr. =    -136.377083
siesta:     Bulk bias =       0.000000
siesta:   Exch.-corr. =   -1382.292444
siesta:  Ion-electron = -116290.233746
siesta:       Ion-ion =   40837.990450
siesta:       Ekinion =       0.000000
siesta: D3 dispersion =       0.000000
siesta:         Total =  -15878.859250
siesta:         Fermi =      -3.095668

siesta: Atomic forces (eV/Ang):
siesta:      1    0.000000    0.011631    0.038737
siesta:      2   -0.000000    0.011631    0.038737
siesta:      3   -0.000000    0.011596    1.498508
siesta:      4    0.000000    0.011596    1.498508
siesta:      5   -0.000000    0.032231   -1.464532
siesta:      6    0.000000    0.032231   -1.464532
siesta: ----------------------------------------
siesta:    Tot    0.000000    0.110918    0.145426

siesta: Stress tensor (static) (eV/Ang**3):
siesta:     0.017120   -0.000000    0.000000
siesta:    -0.000000    0.014636   -0.000459
siesta:     0.000000   -0.000459    0.022930

siesta: Cell volume =        429.656853 Ang**3

siesta: Pressure (static):
siesta:                Solid            Molecule  Units
siesta:          -0.00019853         -0.00011630  Ry/Bohr**3
siesta:          -0.01822853         -0.01067849  eV/Ang**3
siesta:         -29.20564774        -17.10901355  kBar
(Free)E+ p_basis*V_orbitals  =      -15876.338174
(Free)Eharris+ p_basis*V_orbitals  =      -15876.338174

siesta: Electric dipole (a.u.)  =   -0.000000   -0.000000    0.000071
siesta: Electric dipole (Debye) =   -0.000000   -0.000000    0.000179

dhscf: Vacuum level (max, mean) =    0.395475    0.386216 eV

cite: Please see "WS2.bib" for an exhaustive BiBTeX file.
cite: Please clearly indicate Siesta version in published work: MaX-1.0-55-g0612142bc
cite: This calculation has made use of the following articles
cite: which are encouraged to be cited in a published work.
        Primary SIESTA paper
          DOI: www.doi.org/10.1088/0953-8984/14/11/302


>> End of run:  28-JUN-2023  22:24:49
Job completed
