
     Program PWSCF v.7.1 starts on 28Mar2023 at 15:38:56 

     This program is part of the open-source Quantum ESPRESSO suite
     for quantum simulation of materials; please cite
         "P. Giannozzi et al., J. Phys.:Condens. Matter 21 395502 (2009);
         "P. Giannozzi et al., J. Phys.:Condens. Matter 29 465901 (2017);
         "P. Giannozzi et al., J. Chem. Phys. 152 154105 (2020);
          URL http://www.quantum-espresso.org", 
     in publications or presentations arising from this work. More details at
     http://www.quantum-espresso.org/quote

     Parallel version (MPI & OpenMP), running on     256 processor cores
     Number of MPI processes:               128
     Threads/MPI process:                     2

     MPI processes distributed on     1 nodes
     465846 MiB available memory on the printing compute node when the environment starts

     Reading input from scf.in
Warning: card C 0.6666666667 0.6666666667 0.1020678295 ignored

     Current dimensions of program PWSCF are:
     Max number of different atomic species (ntypx) = 10
     Max number of k-points (npk) =  40000
     Max angular momentum in pseudopotentials (lmaxx) =  4

     K-points division:     npool     =       4
     R & G space division:  proc/nbgrp/npool/nimage =      32
     Subspace diagonalization in iterative solution of the eigenvalue problem:
     a serial algorithm will be used


     Parallelization info
     --------------------
     sticks:   dense  smooth     PW     G-vecs:    dense   smooth      PW
     Min           7       7      2                  821      821     154
     Max           8       8      3                  848      848     191
     Sum         241     241     85                26711    26711    5547

     Using Slab Decomposition



     bravais-lattice index     =            0
     lattice parameter (alat)  =       4.6487  a.u.
     unit-cell volume          =     778.0726 (a.u.)^3
     number of atoms/cell      =            1
     number of atomic types    =            1
     number of electrons       =         4.00
     number of Kohn-Sham states=            6
     kinetic-energy cutoff     =      40.0000  Ry
     charge density cutoff     =     160.0000  Ry
     scf convergence threshold =      1.0E-06
     mixing beta               =       0.3000
     number of iterations used =            8  plain     mixing
     Exchange-correlation= PBE
                           (   1   4   3   4   0   0   0)

     celldm(1)=   4.648726  celldm(2)=   0.000000  celldm(3)=   0.000000
     celldm(4)=   0.000000  celldm(5)=   0.000000  celldm(6)=   0.000000

     crystal axes: (cart. coord. in units of alat)
               a(1) = (   1.000000   0.000000   0.000000 )  
               a(2) = (   0.500000   0.866025   0.000000 )  
               a(3) = (   0.000000   0.000000   8.943089 )  

     reciprocal axes: (cart. coord. in units 2 pi/alat)
               b(1) = (  1.000000 -0.577350  0.000000 )  
               b(2) = (  0.000000  1.154701  0.000000 )  
               b(3) = (  0.000000  0.000000  0.111818 )  


     PseudoPot. # 1 for C  read from file:
     /global/u2/w/wkim94/pseudo/pseudodojo/nc-sr-04_pbe_standard_upf/C.upf
     MD5 check sum: 34a24e64c0a39f27c6c36b90a16ac686
     Pseudo is Norm-conserving + core correction, Zval =  4.0
     Generated using ONCVPSP code by D. R. Hamann
     Using radial grid of 1248 points,  4 beta functions with: 
                l(1) =   0
                l(2) =   0
                l(3) =   1
                l(4) =   1

     atomic species   valence    mass     pseudopotential
        C              4.00    12.01100     C ( 1.00)

     No symmetry found


                                    s                        frac. trans.

      isym =  1     identity                                     

 cryst.   s( 1) = (     1          0          0      )
                  (     0          1          0      )
                  (     0          0          1      )

 cart.    s( 1) = (  1.0000000  0.0000000  0.0000000 )
                  (  0.0000000  1.0000000  0.0000000 )
                  (  0.0000000  0.0000000  1.0000000 )


   Cartesian axes

     site n.     atom                  positions (alat units)
         1           C   tau(   1) = (   0.5000000   0.2886751   0.9128017  )

   Crystallographic axes

     site n.     atom                  positions (cryst. coord.)
         1           C   tau(   1) = (  0.3333333  0.3333333  0.1020678  )

     number of k points=    36  Gaussian smearing, width (Ry)=  0.0001
                       cart. coord. in units 2pi/alat
        k(    1) = (   0.0000000   0.0000000   0.0000000), wk =   0.0555556
        k(    2) = (   0.0000000   0.1924501   0.0000000), wk =   0.0555556
        k(    3) = (   0.0000000   0.3849002   0.0000000), wk =   0.0555556
        k(    4) = (   0.0000000  -0.5773503   0.0000000), wk =   0.0555556
        k(    5) = (   0.0000000  -0.3849002   0.0000000), wk =   0.0555556
        k(    6) = (   0.0000000  -0.1924501   0.0000000), wk =   0.0555556
        k(    7) = (   0.1666667  -0.0962250   0.0000000), wk =   0.0555556
        k(    8) = (   0.1666667   0.0962250   0.0000000), wk =   0.0555556
        k(    9) = (   0.1666667   0.2886751   0.0000000), wk =   0.0555556
        k(   10) = (   0.1666667  -0.6735753   0.0000000), wk =   0.0555556
        k(   11) = (   0.1666667  -0.4811252   0.0000000), wk =   0.0555556
        k(   12) = (   0.1666667  -0.2886751   0.0000000), wk =   0.0555556
        k(   13) = (   0.3333333  -0.1924501   0.0000000), wk =   0.0555556
        k(   14) = (   0.3333333   0.0000000   0.0000000), wk =   0.0555556
        k(   15) = (   0.3333333   0.1924501   0.0000000), wk =   0.0555556
        k(   16) = (   0.3333333  -0.7698004   0.0000000), wk =   0.0555556
        k(   17) = (   0.3333333  -0.5773503   0.0000000), wk =   0.0555556
        k(   18) = (   0.3333333  -0.3849002   0.0000000), wk =   0.0555556
        k(   19) = (  -0.5000000   0.2886751   0.0000000), wk =   0.0555556
        k(   20) = (  -0.5000000   0.4811252   0.0000000), wk =   0.0555556
        k(   21) = (  -0.5000000   0.6735753   0.0000000), wk =   0.0555556
        k(   22) = (  -0.5000000  -0.2886751   0.0000000), wk =   0.0555556
        k(   23) = (  -0.5000000  -0.0962250   0.0000000), wk =   0.0555556
        k(   24) = (  -0.5000000   0.0962250   0.0000000), wk =   0.0555556
        k(   25) = (  -0.3333333   0.1924501   0.0000000), wk =   0.0555556
        k(   26) = (  -0.3333333   0.3849002   0.0000000), wk =   0.0555556
        k(   27) = (  -0.3333333   0.5773503   0.0000000), wk =   0.0555556
        k(   28) = (  -0.3333333  -0.3849002   0.0000000), wk =   0.0555556
        k(   29) = (  -0.3333333  -0.1924501   0.0000000), wk =   0.0555556
        k(   30) = (  -0.3333333   0.0000000   0.0000000), wk =   0.0555556
        k(   31) = (  -0.1666667   0.0962250   0.0000000), wk =   0.0555556
        k(   32) = (  -0.1666667   0.2886751   0.0000000), wk =   0.0555556
        k(   33) = (  -0.1666667   0.4811252   0.0000000), wk =   0.0555556
        k(   34) = (  -0.1666667  -0.4811252   0.0000000), wk =   0.0555556
        k(   35) = (  -0.1666667  -0.2886751   0.0000000), wk =   0.0555556
        k(   36) = (  -0.1666667  -0.0962250   0.0000000), wk =   0.0555556

                       cryst. coord.
        k(    1) = (   0.0000000   0.0000000   0.0000000), wk =   0.0555556
        k(    2) = (   0.0000000   0.1666667   0.0000000), wk =   0.0555556
        k(    3) = (   0.0000000   0.3333333   0.0000000), wk =   0.0555556
        k(    4) = (   0.0000000  -0.5000000   0.0000000), wk =   0.0555556
        k(    5) = (   0.0000000  -0.3333333   0.0000000), wk =   0.0555556
        k(    6) = (   0.0000000  -0.1666667   0.0000000), wk =   0.0555556
        k(    7) = (   0.1666667   0.0000000   0.0000000), wk =   0.0555556
        k(    8) = (   0.1666667   0.1666667   0.0000000), wk =   0.0555556
        k(    9) = (   0.1666667   0.3333333   0.0000000), wk =   0.0555556
        k(   10) = (   0.1666667  -0.5000000   0.0000000), wk =   0.0555556
        k(   11) = (   0.1666667  -0.3333333   0.0000000), wk =   0.0555556
        k(   12) = (   0.1666667  -0.1666667   0.0000000), wk =   0.0555556
        k(   13) = (   0.3333333   0.0000000   0.0000000), wk =   0.0555556
        k(   14) = (   0.3333333   0.1666667   0.0000000), wk =   0.0555556
        k(   15) = (   0.3333333   0.3333333   0.0000000), wk =   0.0555556
        k(   16) = (   0.3333333  -0.5000000   0.0000000), wk =   0.0555556
        k(   17) = (   0.3333333  -0.3333333   0.0000000), wk =   0.0555556
        k(   18) = (   0.3333333  -0.1666667   0.0000000), wk =   0.0555556
        k(   19) = (  -0.5000000   0.0000000   0.0000000), wk =   0.0555556
        k(   20) = (  -0.5000000   0.1666667   0.0000000), wk =   0.0555556
        k(   21) = (  -0.5000000   0.3333333   0.0000000), wk =   0.0555556
        k(   22) = (  -0.5000000  -0.5000000   0.0000000), wk =   0.0555556
        k(   23) = (  -0.5000000  -0.3333333   0.0000000), wk =   0.0555556
        k(   24) = (  -0.5000000  -0.1666667   0.0000000), wk =   0.0555556
        k(   25) = (  -0.3333333  -0.0000000   0.0000000), wk =   0.0555556
        k(   26) = (  -0.3333333   0.1666667   0.0000000), wk =   0.0555556
        k(   27) = (  -0.3333333   0.3333333   0.0000000), wk =   0.0555556
        k(   28) = (  -0.3333333  -0.5000000   0.0000000), wk =   0.0555556
        k(   29) = (  -0.3333333  -0.3333333   0.0000000), wk =   0.0555556
        k(   30) = (  -0.3333333  -0.1666667   0.0000000), wk =   0.0555556
        k(   31) = (  -0.1666667   0.0000000   0.0000000), wk =   0.0555556
        k(   32) = (  -0.1666667   0.1666667   0.0000000), wk =   0.0555556
        k(   33) = (  -0.1666667   0.3333333   0.0000000), wk =   0.0555556
        k(   34) = (  -0.1666667  -0.5000000   0.0000000), wk =   0.0555556
        k(   35) = (  -0.1666667  -0.3333333   0.0000000), wk =   0.0555556
        k(   36) = (  -0.1666667  -0.1666667   0.0000000), wk =   0.0555556

     Dense  grid:    26711 G-vectors     FFT dimensions: (  20,  20, 180)

     Dynamical RAM for                 wfc:       0.01 MB

     Dynamical RAM for     wfc (w. buffer):       0.09 MB

     Dynamical RAM for           str. fact:       0.01 MB

     Dynamical RAM for           local pot:       0.00 MB

     Dynamical RAM for          nlocal pot:       0.01 MB

     Dynamical RAM for                qrad:       0.29 MB

     Dynamical RAM for          rho,v,vnew:       0.09 MB

     Dynamical RAM for               rhoin:       0.03 MB

     Dynamical RAM for            rho*nmix:       0.20 MB

     Dynamical RAM for           G-vectors:       0.05 MB

     Dynamical RAM for          h,s,v(r/c):       0.03 MB

     Dynamical RAM for          <psi|beta>:       0.00 MB

     Dynamical RAM for                 psi:       0.04 MB

     Dynamical RAM for                hpsi:       0.04 MB

     Dynamical RAM for      wfcinit/wfcrot:       0.02 MB

     Estimated static dynamical RAM per process >       0.70 MB

     Estimated max dynamical RAM per process >       1.01 MB

     Estimated total dynamical RAM >     109.56 MB

     Initial potential from superposition of free atoms

     starting charge       4.0000, renormalised to       4.0000

     negative rho (up, down):  3.537E-04 0.000E+00
     Starting wfcs are    4 randomized atomic wfcs +    2 random wfcs

     total cpu time spent up to now is        0.6 secs

     Self-consistent Calculation

     iteration #  1     ecut=    40.00 Ry     beta= 0.30
     Davidson diagonalization with overlap

---- Real-time Memory Report at c_bands before calling an iterative solver
            47 MiB given to the printing process from OS
             0 MiB allocation reported by mallinfo(arena+hblkhd)
        464929 MiB available memory on the node where the printing process lives
------------------
     ethr =  1.00E-02,  avg # of iterations =  7.2

     Threshold (ethr) on eigenvalues was too large:
     Diagonalizing with lowered threshold

     Davidson diagonalization with overlap

---- Real-time Memory Report at c_bands before calling an iterative solver
            49 MiB given to the printing process from OS
             0 MiB allocation reported by mallinfo(arena+hblkhd)
        464900 MiB available memory on the node where the printing process lives
------------------
     ethr =  2.23E-04,  avg # of iterations =  7.2

     negative rho (up, down):  2.389E-04 0.000E+00

     total cpu time spent up to now is        0.7 secs

     total energy              =     -11.60264636 Ry
     estimated scf accuracy    <       0.00880220 Ry

     iteration #  2     ecut=    40.00 Ry     beta= 0.30
     Davidson diagonalization with overlap

---- Real-time Memory Report at c_bands before calling an iterative solver
            50 MiB given to the printing process from OS
             0 MiB allocation reported by mallinfo(arena+hblkhd)
        464893 MiB available memory on the node where the printing process lives
------------------
     ethr =  2.20E-04,  avg # of iterations =  1.0

     negative rho (up, down):  4.160E-05 0.000E+00

     total cpu time spent up to now is        0.8 secs

     total energy              =     -11.60133297 Ry
     estimated scf accuracy    <       0.00342291 Ry

     iteration #  3     ecut=    40.00 Ry     beta= 0.30
     Davidson diagonalization with overlap

---- Real-time Memory Report at c_bands before calling an iterative solver
            51 MiB given to the printing process from OS
             0 MiB allocation reported by mallinfo(arena+hblkhd)
        464888 MiB available memory on the node where the printing process lives
------------------
     ethr =  8.56E-05,  avg # of iterations =  3.0

     negative rho (up, down):  2.974E-06 0.000E+00

     total cpu time spent up to now is        0.8 secs

     total energy              =     -11.60168651 Ry
     estimated scf accuracy    <       0.00007359 Ry

     iteration #  4     ecut=    40.00 Ry     beta= 0.30
     Davidson diagonalization with overlap

---- Real-time Memory Report at c_bands before calling an iterative solver
            52 MiB given to the printing process from OS
             0 MiB allocation reported by mallinfo(arena+hblkhd)
        464887 MiB available memory on the node where the printing process lives
------------------
     ethr =  1.84E-06,  avg # of iterations =  5.7

     negative rho (up, down):  1.214E-06 0.000E+00

     total cpu time spent up to now is        0.9 secs

     total energy              =     -11.60169570 Ry
     estimated scf accuracy    <       0.00002989 Ry

     iteration #  5     ecut=    40.00 Ry     beta= 0.30
     Davidson diagonalization with overlap

---- Real-time Memory Report at c_bands before calling an iterative solver
            52 MiB given to the printing process from OS
             0 MiB allocation reported by mallinfo(arena+hblkhd)
        464883 MiB available memory on the node where the printing process lives
------------------
     ethr =  7.47E-07,  avg # of iterations =  3.1

     total cpu time spent up to now is        0.9 secs

     End of self-consistent calculation

          k = 0.0000 0.0000 0.0000 (  3359 PWs)   bands (ev):

   -16.5239  -6.8447   0.3547   0.6138   0.6138   0.8552

     occupation numbers 
     1.0000   1.0000   0.0000   0.0000   0.0000   0.0000

          k = 0.0000 0.1925 0.0000 (  3340 PWs)   bands (ev):

   -15.8238  -6.2057  -1.2990   0.0849   1.2645   1.7410

     occupation numbers 
     1.0000   1.0000   0.0000   0.0000   0.0000   0.0000

          k = 0.0000 0.3849 0.0000 (  3318 PWs)   bands (ev):

   -13.8275  -5.3103  -4.5980  -0.8484   3.9848   4.2844

     occupation numbers 
     1.0000   1.0000   0.0000   0.0000   0.0000   0.0000

          k = 0.0000-0.5774 0.0000 (  3332 PWs)   bands (ev):

   -11.7860  -8.2269  -3.4950  -1.2732   6.3087   8.4144

     occupation numbers 
     1.0000   1.0000   0.0000   0.0000   0.0000   0.0000

          k = 0.0000-0.3849 0.0000 (  3318 PWs)   bands (ev):

   -13.8275  -5.3103  -4.5980  -0.8484   3.9848   4.2844

     occupation numbers 
     1.0000   1.0000   0.0000   0.0000   0.0000   0.0000

          k = 0.0000-0.1925 0.0000 (  3340 PWs)   bands (ev):

   -15.8238  -6.2057  -1.2990   0.0849   1.2645   1.7410

     occupation numbers 
     1.0000   1.0000   0.0000   0.0000   0.0000   0.0000

          k = 0.1667-0.0962 0.0000 (  3340 PWs)   bands (ev):

   -15.8238  -6.2057  -1.2990   0.0849   1.2645   1.7410

     occupation numbers 
     1.0000   1.0000   0.0000   0.0000   0.0000   0.0000

          k = 0.1667 0.0962 0.0000 (  3340 PWs)   bands (ev):

   -15.8238  -6.2057  -1.2990   0.0849   1.2645   1.7410

     occupation numbers 
     1.0000   1.0000   0.0000   0.0000   0.0000   0.0000

          k = 0.1667 0.2887 0.0000 (  3319 PWs)   bands (ev):

   -14.4682  -5.0643  -3.6188  -1.4885   3.0799   3.4716

     occupation numbers 
     1.0000   0.6666   0.0000   0.0000   0.0000   0.0000

          k = 0.1667-0.6736 0.0000 (  3327 PWs)   bands (ev):

   -12.1429  -6.8346  -3.5716  -3.0187   6.3422   6.6927

     occupation numbers 
     1.0000   1.0000   0.0000   0.0000   0.0000   0.0000

          k = 0.1667-0.4811 0.0000 (  3327 PWs)   bands (ev):

   -12.1429  -6.8346  -3.5716  -3.0187   6.3422   6.6927

     occupation numbers 
     1.0000   1.0000   0.0000   0.0000   0.0000   0.0000

          k = 0.1667-0.2887 0.0000 (  3319 PWs)   bands (ev):

   -14.4682  -5.0643  -3.6188  -1.4885   3.0799   3.4716

     occupation numbers 
     1.0000   0.6668   0.0000   0.0000   0.0000   0.0000

          k = 0.3333-0.1925 0.0000 (  3318 PWs)   bands (ev):

   -13.8275  -5.3103  -4.5980  -0.8484   3.9848   4.2844

     occupation numbers 
     1.0000   1.0000   0.0000   0.0000   0.0000   0.0000

          k = 0.3333 0.0000 0.0000 (  3319 PWs)   bands (ev):

   -14.4682  -5.0643  -3.6188  -1.4885   3.0799   3.4716

     occupation numbers 
     1.0000   0.6667   0.0000   0.0000   0.0000   0.0000

          k = 0.3333 0.1925 0.0000 (  3318 PWs)   bands (ev):

   -13.8275  -5.3103  -4.5980  -0.8485   3.9848   4.2844

     occupation numbers 
     1.0000   1.0000   0.0000   0.0000   0.0000   0.0000

          k = 0.3333-0.7698 0.0000 (  3327 PWs)   bands (ev):

   -12.1429  -6.8346  -3.5716  -3.0187   6.3422   6.6927

     occupation numbers 
     1.0000   1.0000   0.0000   0.0000   0.0000   0.0000

          k = 0.3333-0.5774 0.0000 (  3273 PWs)   bands (ev):

   -10.8992  -6.1490  -6.1490  -3.0050   9.0584   9.0584

     occupation numbers 
     1.0000   1.0000   1.0000   0.0000   0.0000   0.0000

          k = 0.3333-0.3849 0.0000 (  3327 PWs)   bands (ev):

   -12.1429  -6.8346  -3.5716  -3.0187   6.3422   6.6927

     occupation numbers 
     1.0000   1.0000   0.0000   0.0000   0.0000   0.0000

          k =-0.5000 0.2887 0.0000 (  3332 PWs)   bands (ev):

   -11.7860  -8.2269  -3.4950  -1.2732   6.3087   8.4144

     occupation numbers 
     1.0000   1.0000   0.0000   0.0000   0.0000   0.0000

          k =-0.5000 0.4811 0.0000 (  3327 PWs)   bands (ev):

   -12.1429  -6.8346  -3.5716  -3.0187   6.3422   6.6927

     occupation numbers 
     1.0000   1.0000   0.0000   0.0000   0.0000   0.0000

          k =-0.5000 0.6736 0.0000 (  3327 PWs)   bands (ev):

   -12.1429  -6.8346  -3.5716  -3.0187   6.3422   6.6927

     occupation numbers 
     1.0000   1.0000   0.0000   0.0000   0.0000   0.0000

          k =-0.5000-0.2887 0.0000 (  3332 PWs)   bands (ev):

   -11.7860  -8.2269  -3.4950  -1.2732   6.3087   8.4145

     occupation numbers 
     1.0000   1.0000   0.0000   0.0000   0.0000   0.0000

          k =-0.5000-0.0962 0.0000 (  3327 PWs)   bands (ev):

   -12.1429  -6.8346  -3.5716  -3.0187   6.3422   6.6927

     occupation numbers 
     1.0000   1.0000   0.0000   0.0000   0.0000   0.0000

          k =-0.5000 0.0962 0.0000 (  3327 PWs)   bands (ev):

   -12.1429  -6.8346  -3.5716  -3.0187   6.3422   6.6927

     occupation numbers 
     1.0000   1.0000   0.0000   0.0000   0.0000   0.0000

          k =-0.3333 0.1925 0.0000 (  3318 PWs)   bands (ev):

   -13.8275  -5.3103  -4.5980  -0.8484   3.9848   4.2844

     occupation numbers 
     1.0000   1.0000   0.0000   0.0000   0.0000   0.0000

          k =-0.3333 0.3849 0.0000 (  3327 PWs)   bands (ev):

   -12.1429  -6.8346  -3.5716  -3.0187   6.3422   6.6927

     occupation numbers 
     1.0000   1.0000   0.0000   0.0000   0.0000   0.0000

          k =-0.3333 0.5774 0.0000 (  3273 PWs)   bands (ev):

   -10.8992  -6.1490  -6.1490  -3.0050   9.0584   9.0584

     occupation numbers 
     1.0000   1.0000   1.0000   0.0000   0.0000   0.0000

          k =-0.3333-0.3849 0.0000 (  3327 PWs)   bands (ev):

   -12.1429  -6.8346  -3.5716  -3.0187   6.3422   6.6927

     occupation numbers 
     1.0000   1.0000   0.0000   0.0000   0.0000   0.0000

          k =-0.3333-0.1925 0.0000 (  3318 PWs)   bands (ev):

   -13.8275  -5.3103  -4.5980  -0.8485   3.9848   4.2844

     occupation numbers 
     1.0000   1.0000   0.0000   0.0000   0.0000   0.0000

          k =-0.3333 0.0000 0.0000 (  3319 PWs)   bands (ev):

   -14.4682  -5.0643  -3.6188  -1.4885   3.0799   3.4716

     occupation numbers 
     1.0000   0.6667   0.0000   0.0000   0.0000   0.0000

          k =-0.1667 0.0962 0.0000 (  3340 PWs)   bands (ev):

   -15.8238  -6.2057  -1.2990   0.0849   1.2645   1.7410

     occupation numbers 
     1.0000   1.0000   0.0000   0.0000   0.0000   0.0000

          k =-0.1667 0.2887 0.0000 (  3319 PWs)   bands (ev):

   -14.4682  -5.0643  -3.6188  -1.4885   3.0799   3.4716

     occupation numbers 
     1.0000   0.6668   0.0000   0.0000   0.0000   0.0000

          k =-0.1667 0.4811 0.0000 (  3327 PWs)   bands (ev):

   -12.1429  -6.8346  -3.5716  -3.0187   6.3422   6.6927

     occupation numbers 
     1.0000   1.0000   0.0000   0.0000   0.0000   0.0000

          k =-0.1667-0.4811 0.0000 (  3327 PWs)   bands (ev):

   -12.1429  -6.8346  -3.5716  -3.0187   6.3422   6.6927

     occupation numbers 
     1.0000   1.0000   0.0000   0.0000   0.0000   0.0000

          k =-0.1667-0.2887 0.0000 (  3319 PWs)   bands (ev):

   -14.4682  -5.0643  -3.6188  -1.4885   3.0799   3.4716

     occupation numbers 
     1.0000   0.6666   0.0000   0.0000   0.0000   0.0000

          k =-0.1667-0.0962 0.0000 (  3340 PWs)   bands (ev):

   -15.8238  -6.2057  -1.2990   0.0849   1.2645   1.7410

     occupation numbers 
     1.0000   1.0000   0.0000   0.0000   0.0000   0.0000

     the Fermi energy is    -5.0638 ev

!    total energy              =     -11.60170030 Ry
     estimated scf accuracy    <       0.00000012 Ry
     smearing contrib. (-TS)   =      -0.00000857 Ry
     internal energy E=F+TS    =     -11.60169173 Ry

     The total energy is F=E-TS. E is the sum of the following terms:
     one-electron contribution =     -62.30972056 Ry
     hartree contribution      =      31.63185641 Ry
     xc contribution           =      -3.64164550 Ry
     ewald contribution        =      22.71781790 Ry

     convergence has been achieved in   5 iterations

     Writing all to output data dir ./graphene.save/

     init_run     :      0.45s CPU      0.45s WALL (       1 calls)
     electrons    :      0.59s CPU      0.37s WALL (       1 calls)

     Called by init_run:
     wfcinit      :      0.02s CPU      0.02s WALL (       1 calls)
     wfcinit:atom :      0.00s CPU      0.00s WALL (       9 calls)
     wfcinit:wfcr :      0.02s CPU      0.02s WALL (       9 calls)
     potinit      :      0.04s CPU      0.02s WALL (       1 calls)
     hinit0       :      0.39s CPU      0.39s WALL (       1 calls)

     Called by electrons:
     c_bands      :      0.48s CPU      0.28s WALL (       6 calls)
     sum_band     :      0.07s CPU      0.04s WALL (       6 calls)
     v_of_rho     :      0.03s CPU      0.02s WALL (       6 calls)
     v_h          :      0.00s CPU      0.00s WALL (       6 calls)
     v_xc         :      0.02s CPU      0.02s WALL (       6 calls)
     mix_rho      :      0.00s CPU      0.00s WALL (       6 calls)

     Called by c_bands:
     init_us_2    :      0.00s CPU      0.00s WALL (     117 calls)
     init_us_2:cp :      0.00s CPU      0.00s WALL (     117 calls)
     cegterg      :      0.38s CPU      0.22s WALL (      54 calls)

     Called by sum_band:
     sum_band:wei :      0.01s CPU      0.00s WALL (       6 calls)
     sum_band:loo :      0.04s CPU      0.03s WALL (       6 calls)
     sum_band:buf :      0.00s CPU      0.00s WALL (      54 calls)
     sum_band:ini :      0.00s CPU      0.00s WALL (      54 calls)

     Called by *egterg:
     cdiaghg      :      0.07s CPU      0.03s WALL (     300 calls)
     cegterg:over :      0.05s CPU      0.02s WALL (     255 calls)
     cegterg:upda :      0.01s CPU      0.00s WALL (     255 calls)
     cegterg:last :      0.00s CPU      0.00s WALL (      65 calls)
     h_psi        :      0.25s CPU      0.17s WALL (     318 calls)
     g_psi        :      0.00s CPU      0.00s WALL (     255 calls)

     Called by h_psi:
     h_psi:calbec :      0.02s CPU      0.01s WALL (     318 calls)
     vloc_psi     :      0.23s CPU      0.16s WALL (     318 calls)
     add_vuspsi   :      0.01s CPU      0.00s WALL (     318 calls)

     General routines
     calbec       :      0.02s CPU      0.01s WALL (     318 calls)
     fft          :      0.41s CPU      0.40s WALL (      61 calls)
     ffts         :      0.00s CPU      0.00s WALL (       6 calls)
     fftw         :      0.25s CPU      0.17s WALL (    2564 calls)

     Parallel routines

     PWSCF        :      1.15s CPU      1.07s WALL


   This run was terminated on:  15:38:57  28Mar2023            

=------------------------------------------------------------------------------=
   JOB DONE.
=------------------------------------------------------------------------------=
Note: The following floating-point exceptions are signalling: IEEE_DENORMAL
Note: The following floating-point exceptions are signalling: IEEE_DENORMAL
Note: The following floating-point exceptions are signalling: IEEE_DENORMAL
Note: The following floating-point exceptions are signalling: IEEE_DENORMAL
Note: The following floating-point exceptions are signalling: IEEE_DENORMAL
Note: The following floating-point exceptions are signalling: IEEE_DENORMAL
Note: The following floating-point exceptions are signalling: IEEE_DENORMAL
Note: The following floating-point exceptions are signalling: IEEE_DENORMAL
Note: The following floating-point exceptions are signalling: IEEE_DENORMAL
Note: The following floating-point exceptions are signalling: IEEE_DENORMAL
Note: The following floating-point exceptions are signalling: IEEE_DENORMAL
Note: The following floating-point exceptions are signalling: IEEE_DENORMAL
Note: The following floating-point exceptions are signalling: IEEE_DENORMAL
Note: The following floating-point exceptions are signalling: IEEE_DENORMAL
Note: The following floating-point exceptions are signalling: IEEE_DENORMAL
Note: The following floating-point exceptions are signalling: IEEE_DENORMAL
Note: The following floating-point exceptions are signalling: IEEE_DENORMAL
Note: The following floating-point exceptions are signalling: IEEE_DENORMAL
Note: The following floating-point exceptions are signalling: IEEE_DENORMAL
Note: The following floating-point exceptions are signalling: IEEE_DENORMAL
Note: The following floating-point exceptions are signalling: IEEE_DENORMAL
Note: The following floating-point exceptions are signalling: IEEE_DENORMAL
Note: The following floating-point exceptions are signalling: IEEE_DENORMAL
Note: The following floating-point exceptions are signalling: IEEE_DENORMAL
Note: The following floating-point exceptions are signalling: IEEE_DENORMAL
Note: The following floating-point exceptions are signalling: IEEE_DENORMAL
Note: The following floating-point exceptions are signalling: IEEE_DENORMAL
Note: The following floating-point exceptions are signalling: IEEE_DENORMAL
Note: The following floating-point exceptions are signalling: IEEE_DENORMAL
Note: The following floating-point exceptions are signalling: IEEE_DENORMAL
Note: The following floating-point exceptions are signalling: IEEE_DENORMAL
Note: The following floating-point exceptions are signalling: IEEE_DENORMAL
Note: The following floating-point exceptions are signalling: IEEE_DENORMAL
Note: The following floating-point exceptions are signalling: IEEE_DENORMAL
Note: The following floating-point exceptions are signalling: IEEE_DENORMAL
Note: The following floating-point exceptions are signalling: IEEE_DENORMAL
Note: The following floating-point exceptions are signalling: IEEE_DENORMAL
Note: The following floating-point exceptions are signalling: IEEE_DENORMAL
Note: The following floating-point exceptions are signalling: IEEE_DENORMAL
Note: The following floating-point exceptions are signalling: IEEE_DENORMAL
Note: The following floating-point exceptions are signalling: IEEE_DENORMAL
Note: The following floating-point exceptions are signalling: IEEE_DENORMAL
Note: The following floating-point exceptions are signalling: IEEE_DENORMAL
Note: The following floating-point exceptions are signalling: IEEE_DENORMAL
Note: The following floating-point exceptions are signalling: IEEE_DENORMAL
Note: The following floating-point exceptions are signalling: IEEE_DENORMAL
Note: The following floating-point exceptions are signalling: IEEE_DENORMAL
Note: The following floating-point exceptions are signalling: IEEE_DENORMAL
Note: The following floating-point exceptions are signalling: IEEE_DENORMAL
Note: The following floating-point exceptions are signalling: IEEE_DENORMAL
Note: The following floating-point exceptions are signalling: IEEE_DENORMAL
Note: The following floating-point exceptions are signalling: IEEE_DENORMAL
Note: The following floating-point exceptions are signalling: IEEE_DENORMAL
Note: The following floating-point exceptions are signalling: IEEE_DENORMAL
Note: The following floating-point exceptions are signalling: IEEE_DENORMAL
Note: The following floating-point exceptions are signalling: IEEE_DENORMAL
Note: The following floating-point exceptions are signalling: IEEE_DENORMAL
Note: The following floating-point exceptions are signalling: IEEE_DENORMAL
Note: The following floating-point exceptions are signalling: IEEE_DENORMAL
Note: The following floating-point exceptions are signalling: IEEE_DENORMAL
Note: The following floating-point exceptions are signalling: IEEE_DENORMAL
Note: The following floating-point exceptions are signalling: IEEE_DENORMAL
Note: The following floating-point exceptions are signalling: IEEE_DENORMAL
Note: The following floating-point exceptions are signalling: IEEE_DENORMAL
Note: The following floating-point exceptions are signalling: IEEE_DENORMAL
Note: The following floating-point exceptions are signalling: IEEE_DENORMAL
Note: The following floating-point exceptions are signalling: IEEE_DENORMAL
Note: The following floating-point exceptions are signalling: IEEE_DENORMAL
Note: The following floating-point exceptions are signalling: IEEE_DENORMAL
Note: The following floating-point exceptions are signalling: IEEE_DENORMAL
Note: The following floating-point exceptions are signalling: IEEE_DENORMAL
Note: The following floating-point exceptions are signalling: IEEE_DENORMAL
Note: The following floating-point exceptions are signalling: IEEE_DENORMAL
Note: The following floating-point exceptions are signalling: IEEE_DENORMAL
Note: The following floating-point exceptions are signalling: IEEE_DENORMAL
Note: The following floating-point exceptions are signalling: IEEE_DENORMAL
Note: The following floating-point exceptions are signalling: IEEE_DENORMAL
Note: The following floating-point exceptions are signalling: IEEE_DENORMAL
Note: The following floating-point exceptions are signalling: IEEE_DENORMAL
Note: The following floating-point exceptions are signalling: IEEE_DENORMAL
Note: The following floating-point exceptions are signalling: IEEE_DENORMAL
Note: The following floating-point exceptions are signalling: IEEE_DENORMAL
Note: The following floating-point exceptions are signalling: IEEE_DENORMAL
Note: The following floating-point exceptions are signalling: IEEE_DENORMAL
Note: The following floating-point exceptions are signalling: IEEE_DENORMAL
Note: The following floating-point exceptions are signalling: IEEE_DENORMAL
Note: The following floating-point exceptions are signalling: IEEE_DENORMAL
Note: The following floating-point exceptions are signalling: IEEE_DENORMAL
Note: The following floating-point exceptions are signalling: IEEE_DENORMAL
Note: The following floating-point exceptions are signalling: IEEE_DENORMAL
Note: The following floating-point exceptions are signalling: IEEE_DENORMAL
Note: The following floating-point exceptions are signalling: IEEE_DENORMAL
Note: The following floating-point exceptions are signalling: IEEE_DENORMAL
Note: The following floating-point exceptions are signalling: IEEE_DENORMAL
Note: The following floating-point exceptions are signalling: IEEE_DENORMAL
Note: The following floating-point exceptions are signalling: IEEE_DENORMAL
Note: The following floating-point exceptions are signalling: IEEE_DENORMAL
Note: The following floating-point exceptions are signalling: IEEE_DENORMAL
Note: The following floating-point exceptions are signalling: IEEE_DENORMAL
Note: The following floating-point exceptions are signalling: IEEE_DENORMAL
Note: The following floating-point exceptions are signalling: IEEE_DENORMAL
Note: The following floating-point exceptions are signalling: IEEE_DENORMAL
Note: The following floating-point exceptions are signalling: IEEE_DENORMAL
Note: The following floating-point exceptions are signalling: IEEE_DENORMAL
Note: The following floating-point exceptions are signalling: IEEE_DENORMAL
Note: The following floating-point exceptions are signalling: IEEE_DENORMAL
Note: The following floating-point exceptions are signalling: IEEE_DENORMAL
Note: The following floating-point exceptions are signalling: IEEE_DENORMAL
Note: The following floating-point exceptions are signalling: IEEE_DENORMAL
Note: The following floating-point exceptions are signalling: IEEE_DENORMAL
Note: The following floating-point exceptions are signalling: IEEE_DENORMAL
Note: The following floating-point exceptions are signalling: IEEE_DENORMAL
Note: The following floating-point exceptions are signalling: IEEE_DENORMAL
Note: The following floating-point exceptions are signalling: IEEE_DENORMAL
Note: The following floating-point exceptions are signalling: IEEE_DENORMAL
Note: The following floating-point exceptions are signalling: IEEE_DENORMAL
Note: The following floating-point exceptions are signalling: IEEE_DENORMAL
Note: The following floating-point exceptions are signalling: IEEE_DENORMAL
Note: The following floating-point exceptions are signalling: IEEE_DENORMAL
Note: The following floating-point exceptions are signalling: IEEE_DENORMAL
Note: The following floating-point exceptions are signalling: IEEE_DENORMAL
Note: The following floating-point exceptions are signalling: IEEE_DENORMAL
Note: The following floating-point exceptions are signalling: IEEE_DENORMAL
Note: The following floating-point exceptions are signalling: IEEE_DENORMAL
Note: The following floating-point exceptions are signalling: IEEE_DENORMAL
Note: The following floating-point exceptions are signalling: IEEE_DENORMAL
Note: The following floating-point exceptions are signalling: IEEE_DENORMAL
Note: The following floating-point exceptions are signalling: IEEE_DENORMAL
