
     Program PWSCF v.7.1 starts on  4Jul2023 at 16:43:21 

     This program is part of the open-source Quantum ESPRESSO suite
     for quantum simulation of materials; please cite
         "P. Giannozzi et al., J. Phys.:Condens. Matter 21 395502 (2009);
         "P. Giannozzi et al., J. Phys.:Condens. Matter 29 465901 (2017);
         "P. Giannozzi et al., J. Chem. Phys. 152 154105 (2020);
          URL http://www.quantum-espresso.org", 
     in publications or presentations arising from this work. More details at
     http://www.quantum-espresso.org/quote

     Parallel version (MPI & OpenMP), running on     224 processor cores
     Number of MPI processes:               112
     Threads/MPI process:                     2

     MPI processes distributed on     1 nodes
     486083 MiB available memory on the printing compute node when the environment starts

     Reading input from scf.in

     Current dimensions of program PWSCF are:
     Max number of different atomic species (ntypx) = 10
     Max number of k-points (npk) =  40000
     Max angular momentum in pseudopotentials (lmaxx) =  4

     IMPORTANT: XC functional enforced from input :
     Exchange-correlation= XC-001L-009L
                           (   1   9   0   0   0   0   0)
     Any further DFT definition will be discarded
     Please, verify this is what you really want


     K-points division:     npool     =       7
     R & G space division:  proc/nbgrp/npool/nimage =      16
     Subspace diagonalization in iterative solution of the eigenvalue problem:
     a serial algorithm will be used


     Parallelization info
     --------------------
     sticks:   dense  smooth     PW     G-vecs:    dense   smooth      PW
     Min          12      12      4                 1094     1094     226
     Max          13      13      6                 1119     1119     238
     Sum         199     199     73                17673    17673    3753

     Using Slab Decomposition



     bravais-lattice index     =            0
     lattice parameter (alat)  =       5.9526  a.u.
     unit-cell volume          =    1449.7341 (a.u.)^3
     number of atoms/cell      =            3
     number of atomic types    =            2
     number of electrons       =        40.00
     number of Kohn-Sham states=           20
     kinetic-energy cutoff     =      20.0000  Ry
     charge density cutoff     =      80.0000  Ry
     scf convergence threshold =      1.0E-06
     mixing beta               =       0.3000
     number of iterations used =            8  plain     mixing
     Exchange-correlation= XC-001L-009L
                           (   1   9   0   0   0   0   0)

     celldm(1)=   5.952637  celldm(2)=   0.000000  celldm(3)=   0.000000
     celldm(4)=   0.000000  celldm(5)=   0.000000  celldm(6)=   0.000000

     crystal axes: (cart. coord. in units of alat)
               a(1) = (   1.000000   0.000000   0.000000 )  
               a(2) = (   0.500000   0.866025   0.000000 )  
               a(3) = (   0.000000   0.000000   7.936508 )  

     reciprocal axes: (cart. coord. in units 2 pi/alat)
               b(1) = (  1.000000 -0.577350  0.000000 )  
               b(2) = (  0.000000  1.154701  0.000000 )  
               b(3) = (  0.000000  0.000000  0.126000 )  


     PseudoPot. # 1 for W  read from file:
     /global/cfs/cdirs/mp149/gsharing/wkim/codes/ONCVPseudoPack/SG15_v1.2/UPF/LDA/W_LDA_SR.SG15v1.2.UPF
     MD5 check sum: 1f58d2cc1e84772d4f6ff1a533244c17
     Pseudo is Norm-conserving, Zval = 28.0
     Generated using ONCVPSP code by D. R. Hamann
     Using radial grid of 1380 points,  8 beta functions with: 
                l(1) =   0
                l(2) =   0
                l(3) =   1
                l(4) =   1
                l(5) =   2
                l(6) =   2
                l(7) =   3
                l(8) =   3

     PseudoPot. # 2 for S  read from file:
     /global/cfs/cdirs/mp149/gsharing/wkim/codes/ONCVPseudoPack/SG15_v1.2/UPF/LDA/S_LDA_SR.SG15v1.2.UPF
     MD5 check sum: bfae0967926289c343bbebb1102af724
     Pseudo is Norm-conserving, Zval =  6.0
     Generated using ONCVPSP code by D. R. Hamann
     Using radial grid of 1132 points,  4 beta functions with: 
                l(1) =   0
                l(2) =   0
                l(3) =   1
                l(4) =   1

     atomic species   valence    mass     pseudopotential
        W             28.00   183.84000     W ( 1.00)
        S              6.00    78.96000     S ( 1.00)

     No symmetry found


                                    s                        frac. trans.

      isym =  1     identity                                     

 cryst.   s( 1) = (     1          0          0      )
                  (     0          1          0      )
                  (     0          0          1      )

 cart.    s( 1) = (  1.0000000  0.0000000  0.0000000 )
                  (  0.0000000  1.0000000  0.0000000 )
                  (  0.0000000  0.0000000  1.0000000 )


   Cartesian axes

     site n.     atom                  positions (alat units)
         1           W   tau(   1) = (   0.5000000   0.2886751   3.9682540  )
         2           S   tau(   2) = (   1.0000000   0.5773503   3.4603175  )
         3           S   tau(   3) = (   1.0000000   0.5773503   4.4761905  )

   Crystallographic axes

     site n.     atom                  positions (cryst. coord.)
         1           W   tau(   1) = (  0.3333333  0.3333333  0.5000000  )
         2           S   tau(   2) = (  0.6666667  0.6666667  0.4360000  )
         3           S   tau(   3) = (  0.6666667  0.6666667  0.5640000  )

     number of k points=    36
                       cart. coord. in units 2pi/alat
        k(    1) = (   0.0000000   0.0000000   0.0000000), wk =   0.0555556
        k(    2) = (   0.0000000   0.1924501   0.0000000), wk =   0.0555556
        k(    3) = (   0.0000000   0.3849002   0.0000000), wk =   0.0555556
        k(    4) = (   0.0000000  -0.5773503   0.0000000), wk =   0.0555556
        k(    5) = (   0.0000000  -0.3849002   0.0000000), wk =   0.0555556
        k(    6) = (   0.0000000  -0.1924501   0.0000000), wk =   0.0555556
        k(    7) = (   0.1666667  -0.0962250   0.0000000), wk =   0.0555556
        k(    8) = (   0.1666667   0.0962250   0.0000000), wk =   0.0555556
        k(    9) = (   0.1666667   0.2886751   0.0000000), wk =   0.0555556
        k(   10) = (   0.1666667  -0.6735753   0.0000000), wk =   0.0555556
        k(   11) = (   0.1666667  -0.4811252   0.0000000), wk =   0.0555556
        k(   12) = (   0.1666667  -0.2886751   0.0000000), wk =   0.0555556
        k(   13) = (   0.3333333  -0.1924501   0.0000000), wk =   0.0555556
        k(   14) = (   0.3333333   0.0000000   0.0000000), wk =   0.0555556
        k(   15) = (   0.3333333   0.1924501   0.0000000), wk =   0.0555556
        k(   16) = (   0.3333333  -0.7698004   0.0000000), wk =   0.0555556
        k(   17) = (   0.3333333  -0.5773503   0.0000000), wk =   0.0555556
        k(   18) = (   0.3333333  -0.3849002   0.0000000), wk =   0.0555556
        k(   19) = (  -0.5000000   0.2886751   0.0000000), wk =   0.0555556
        k(   20) = (  -0.5000000   0.4811252   0.0000000), wk =   0.0555556
        k(   21) = (  -0.5000000   0.6735753   0.0000000), wk =   0.0555556
        k(   22) = (  -0.5000000  -0.2886751   0.0000000), wk =   0.0555556
        k(   23) = (  -0.5000000  -0.0962250   0.0000000), wk =   0.0555556
        k(   24) = (  -0.5000000   0.0962250   0.0000000), wk =   0.0555556
        k(   25) = (  -0.3333333   0.1924501   0.0000000), wk =   0.0555556
        k(   26) = (  -0.3333333   0.3849002   0.0000000), wk =   0.0555556
        k(   27) = (  -0.3333333   0.5773503   0.0000000), wk =   0.0555556
        k(   28) = (  -0.3333333  -0.3849002   0.0000000), wk =   0.0555556
        k(   29) = (  -0.3333333  -0.1924501   0.0000000), wk =   0.0555556
        k(   30) = (  -0.3333333   0.0000000   0.0000000), wk =   0.0555556
        k(   31) = (  -0.1666667   0.0962250   0.0000000), wk =   0.0555556
        k(   32) = (  -0.1666667   0.2886751   0.0000000), wk =   0.0555556
        k(   33) = (  -0.1666667   0.4811252   0.0000000), wk =   0.0555556
        k(   34) = (  -0.1666667  -0.4811252   0.0000000), wk =   0.0555556
        k(   35) = (  -0.1666667  -0.2886751   0.0000000), wk =   0.0555556
        k(   36) = (  -0.1666667  -0.0962250   0.0000000), wk =   0.0555556

                       cryst. coord.
        k(    1) = (   0.0000000   0.0000000   0.0000000), wk =   0.0555556
        k(    2) = (   0.0000000   0.1666667   0.0000000), wk =   0.0555556
        k(    3) = (   0.0000000   0.3333333   0.0000000), wk =   0.0555556
        k(    4) = (   0.0000000  -0.5000000   0.0000000), wk =   0.0555556
        k(    5) = (   0.0000000  -0.3333333   0.0000000), wk =   0.0555556
        k(    6) = (   0.0000000  -0.1666667   0.0000000), wk =   0.0555556
        k(    7) = (   0.1666667   0.0000000   0.0000000), wk =   0.0555556
        k(    8) = (   0.1666667   0.1666667   0.0000000), wk =   0.0555556
        k(    9) = (   0.1666667   0.3333333   0.0000000), wk =   0.0555556
        k(   10) = (   0.1666667  -0.5000000   0.0000000), wk =   0.0555556
        k(   11) = (   0.1666667  -0.3333333   0.0000000), wk =   0.0555556
        k(   12) = (   0.1666667  -0.1666667   0.0000000), wk =   0.0555556
        k(   13) = (   0.3333333   0.0000000   0.0000000), wk =   0.0555556
        k(   14) = (   0.3333333   0.1666667   0.0000000), wk =   0.0555556
        k(   15) = (   0.3333333   0.3333333   0.0000000), wk =   0.0555556
        k(   16) = (   0.3333333  -0.5000000   0.0000000), wk =   0.0555556
        k(   17) = (   0.3333333  -0.3333333   0.0000000), wk =   0.0555556
        k(   18) = (   0.3333333  -0.1666667   0.0000000), wk =   0.0555556
        k(   19) = (  -0.5000000   0.0000000   0.0000000), wk =   0.0555556
        k(   20) = (  -0.5000000   0.1666667   0.0000000), wk =   0.0555556
        k(   21) = (  -0.5000000   0.3333333   0.0000000), wk =   0.0555556
        k(   22) = (  -0.5000000  -0.5000000   0.0000000), wk =   0.0555556
        k(   23) = (  -0.5000000  -0.3333333   0.0000000), wk =   0.0555556
        k(   24) = (  -0.5000000  -0.1666667   0.0000000), wk =   0.0555556
        k(   25) = (  -0.3333333  -0.0000000   0.0000000), wk =   0.0555556
        k(   26) = (  -0.3333333   0.1666667   0.0000000), wk =   0.0555556
        k(   27) = (  -0.3333333   0.3333333   0.0000000), wk =   0.0555556
        k(   28) = (  -0.3333333  -0.5000000   0.0000000), wk =   0.0555556
        k(   29) = (  -0.3333333  -0.3333333   0.0000000), wk =   0.0555556
        k(   30) = (  -0.3333333  -0.1666667   0.0000000), wk =   0.0555556
        k(   31) = (  -0.1666667   0.0000000   0.0000000), wk =   0.0555556
        k(   32) = (  -0.1666667   0.1666667   0.0000000), wk =   0.0555556
        k(   33) = (  -0.1666667   0.3333333   0.0000000), wk =   0.0555556
        k(   34) = (  -0.1666667  -0.5000000   0.0000000), wk =   0.0555556
        k(   35) = (  -0.1666667  -0.3333333   0.0000000), wk =   0.0555556
        k(   36) = (  -0.1666667  -0.1666667   0.0000000), wk =   0.0555556

     Dense  grid:    17673 G-vectors     FFT dimensions: (  18,  18, 135)

     Dynamical RAM for                 wfc:       0.04 MB

     Dynamical RAM for     wfc (w. buffer):       0.29 MB

     Dynamical RAM for           str. fact:       0.03 MB

     Dynamical RAM for           local pot:       0.00 MB

     Dynamical RAM for          nlocal pot:       0.10 MB

     Dynamical RAM for                qrad:       3.45 MB

     Dynamical RAM for          rho,v,vnew:       0.12 MB

     Dynamical RAM for               rhoin:       0.04 MB

     Dynamical RAM for            rho*nmix:       0.27 MB

     Dynamical RAM for           G-vectors:       0.07 MB

     Dynamical RAM for          h,s,v(r/c):       0.29 MB

     Dynamical RAM for          <psi|beta>:       0.01 MB

     Dynamical RAM for                 psi:       0.17 MB

     Dynamical RAM for                hpsi:       0.17 MB

     Dynamical RAM for      wfcinit/wfcrot:       0.12 MB

     Estimated static dynamical RAM per process >       4.26 MB

     Estimated max dynamical RAM per process >       5.17 MB

     Estimated total dynamical RAM >     553.60 MB

     WARNING: libxc functional with ID    9 depends
      on external parameters: check the user_guide of
      QE if you need to modify them or to check their
      default values.

     Initial potential from superposition of free atoms

     starting charge      39.9995, renormalised to      40.0000

     negative rho (up, down):  6.729E-02 0.000E+00
     Starting wfcs are   25 randomized atomic wfcs

     total cpu time spent up to now is        0.7 secs

     Self-consistent Calculation

     iteration #  1     ecut=    20.00 Ry     beta= 0.30
     Davidson diagonalization with overlap

---- Real-time Memory Report at c_bands before calling an iterative solver
            50 MiB given to the printing process from OS
             0 MiB allocation reported by mallinfo(arena+hblkhd)
        485230 MiB available memory on the node where the printing process lives
------------------
     ethr =  1.00E-02,  avg # of iterations =  2.0

     negative rho (up, down):  4.352E-02 0.000E+00

     total cpu time spent up to now is        0.8 secs

     total energy              =    -570.13147343 Ry
     estimated scf accuracy    <       4.44071160 Ry

     iteration #  2     ecut=    20.00 Ry     beta= 0.30
     Davidson diagonalization with overlap

---- Real-time Memory Report at c_bands before calling an iterative solver
            52 MiB given to the printing process from OS
             0 MiB allocation reported by mallinfo(arena+hblkhd)
        485161 MiB available memory on the node where the printing process lives
------------------
     ethr =  1.00E-02,  avg # of iterations =  2.6

     negative rho (up, down):  3.030E-02 0.000E+00

     total cpu time spent up to now is        0.9 secs

     total energy              =    -570.10101837 Ry
     estimated scf accuracy    <       1.78206149 Ry

     iteration #  3     ecut=    20.00 Ry     beta= 0.30
     Davidson diagonalization with overlap

---- Real-time Memory Report at c_bands before calling an iterative solver
            52 MiB given to the printing process from OS
             0 MiB allocation reported by mallinfo(arena+hblkhd)
        485159 MiB available memory on the node where the printing process lives
------------------
     ethr =  4.46E-03,  avg # of iterations =  3.0

     negative rho (up, down):  9.078E-03 0.000E+00

     total cpu time spent up to now is        1.0 secs

     total energy              =    -570.03366731 Ry
     estimated scf accuracy    <       0.73861281 Ry

     iteration #  4     ecut=    20.00 Ry     beta= 0.30
     Davidson diagonalization with overlap

---- Real-time Memory Report at c_bands before calling an iterative solver
            52 MiB given to the printing process from OS
             0 MiB allocation reported by mallinfo(arena+hblkhd)
        485157 MiB available memory on the node where the printing process lives
------------------
     ethr =  1.85E-03,  avg # of iterations =  2.8

     negative rho (up, down):  8.349E-04 0.000E+00

     total cpu time spent up to now is        1.2 secs

     total energy              =    -570.11015197 Ry
     estimated scf accuracy    <       0.04418650 Ry

     iteration #  5     ecut=    20.00 Ry     beta= 0.30
     Davidson diagonalization with overlap

---- Real-time Memory Report at c_bands before calling an iterative solver
            53 MiB given to the printing process from OS
             0 MiB allocation reported by mallinfo(arena+hblkhd)
        485156 MiB available memory on the node where the printing process lives
------------------
     ethr =  1.10E-04,  avg # of iterations =  3.1

     negative rho (up, down):  3.608E-07 0.000E+00

     total cpu time spent up to now is        1.3 secs

     total energy              =    -570.11292703 Ry
     estimated scf accuracy    <       0.00686829 Ry

     iteration #  6     ecut=    20.00 Ry     beta= 0.30
     Davidson diagonalization with overlap

---- Real-time Memory Report at c_bands before calling an iterative solver
            53 MiB given to the printing process from OS
             0 MiB allocation reported by mallinfo(arena+hblkhd)
        485156 MiB available memory on the node where the printing process lives
------------------
     ethr =  1.72E-05,  avg # of iterations =  3.6

     total cpu time spent up to now is        1.4 secs

     total energy              =    -570.11495822 Ry
     estimated scf accuracy    <       0.01161153 Ry

     iteration #  7     ecut=    20.00 Ry     beta= 0.30
     Davidson diagonalization with overlap

---- Real-time Memory Report at c_bands before calling an iterative solver
            53 MiB given to the printing process from OS
             0 MiB allocation reported by mallinfo(arena+hblkhd)
        485155 MiB available memory on the node where the printing process lives
------------------
     ethr =  1.72E-05,  avg # of iterations =  2.4

     total cpu time spent up to now is        1.5 secs

     total energy              =    -570.11343090 Ry
     estimated scf accuracy    <       0.00417235 Ry

     iteration #  8     ecut=    20.00 Ry     beta= 0.30
     Davidson diagonalization with overlap

---- Real-time Memory Report at c_bands before calling an iterative solver
            53 MiB given to the printing process from OS
             0 MiB allocation reported by mallinfo(arena+hblkhd)
        485157 MiB available memory on the node where the printing process lives
------------------
     ethr =  1.04E-05,  avg # of iterations =  3.4

     total cpu time spent up to now is        1.7 secs

     total energy              =    -570.11428447 Ry
     estimated scf accuracy    <       0.00549731 Ry

     iteration #  9     ecut=    20.00 Ry     beta= 0.30
     Davidson diagonalization with overlap

---- Real-time Memory Report at c_bands before calling an iterative solver
            53 MiB given to the printing process from OS
             0 MiB allocation reported by mallinfo(arena+hblkhd)
        485158 MiB available memory on the node where the printing process lives
------------------
     ethr =  1.04E-05,  avg # of iterations =  2.9

     total cpu time spent up to now is        1.8 secs

     total energy              =    -570.11477133 Ry
     estimated scf accuracy    <       0.00003957 Ry

     iteration # 10     ecut=    20.00 Ry     beta= 0.30
     Davidson diagonalization with overlap

---- Real-time Memory Report at c_bands before calling an iterative solver
            53 MiB given to the printing process from OS
             0 MiB allocation reported by mallinfo(arena+hblkhd)
        485157 MiB available memory on the node where the printing process lives
------------------
     ethr =  9.89E-08,  avg # of iterations =  4.9

     total cpu time spent up to now is        1.9 secs

     total energy              =    -570.11478838 Ry
     estimated scf accuracy    <       0.00005100 Ry

     iteration # 11     ecut=    20.00 Ry     beta= 0.30
     Davidson diagonalization with overlap

---- Real-time Memory Report at c_bands before calling an iterative solver
            53 MiB given to the printing process from OS
             0 MiB allocation reported by mallinfo(arena+hblkhd)
        485156 MiB available memory on the node where the printing process lives
------------------
     ethr =  9.89E-08,  avg # of iterations =  2.9

     total cpu time spent up to now is        2.0 secs

     End of self-consistent calculation

          k = 0.0000 0.0000 0.0000 (  2245 PWs)   bands (ev):

   -85.8928 -47.6794 -47.5704 -47.5703 -22.1828 -21.9413 -21.9413 -21.2730
   -20.8701 -20.8700 -20.5310 -15.5774 -14.4771  -7.2488  -4.3349  -4.3349
    -3.4580  -3.2992  -3.2992  -2.4357

     occupation numbers 
     1.0000   1.0000   1.0000   1.0000   1.0000   1.0000   1.0000   1.0000
     1.0000   1.0000   1.0000   1.0000   1.0000   1.0000   1.0000   1.0000
     1.0000   1.0000   1.0000   1.0000

          k = 0.0000 0.1925 0.0000 (  2193 PWs)   bands (ev):

   -85.8535 -47.6624 -47.5929 -47.5554 -21.1878 -21.0045 -20.8643 -20.8053
   -20.7271 -20.3917 -20.3316 -15.1898 -14.2295  -6.7902  -4.9278  -4.6298
    -3.8525  -3.7944  -2.7100  -2.5695

     occupation numbers 
     1.0000   1.0000   1.0000   1.0000   1.0000   1.0000   1.0000   1.0000
     1.0000   1.0000   1.0000   1.0000   1.0000   1.0000   1.0000   1.0000
     1.0000   1.0000   1.0000   1.0000

          k = 0.0000 0.3849 0.0000 (  2186 PWs)   bands (ev):

   -85.8480 -47.6874 -47.6535 -47.5863 -21.3707 -21.2366 -21.2185 -21.0269
   -20.6323 -20.5950 -20.5181 -14.2307 -13.7161  -6.8082  -5.8940  -5.5324
    -4.5820  -3.3990  -2.9915  -2.8799

     occupation numbers 
     1.0000   1.0000   1.0000   1.0000   1.0000   1.0000   1.0000   1.0000
     1.0000   1.0000   1.0000   1.0000   1.0000   1.0000   1.0000   1.0000
     1.0000   1.0000   1.0000   1.0000

          k = 0.0000-0.5774 0.0000 (  2208 PWs)   bands (ev):

   -85.8639 -47.7613 -47.6532 -47.6095 -22.1069 -22.0007 -21.5561 -21.3404
   -21.1906 -20.9604 -20.7386 -13.6153 -13.4044  -7.4871  -6.5545  -5.7686
    -4.9002  -3.7625  -2.4858  -2.3672

     occupation numbers 
     1.0000   1.0000   1.0000   1.0000   1.0000   1.0000   1.0000   1.0000
     1.0000   1.0000   1.0000   1.0000   1.0000   1.0000   1.0000   1.0000
     1.0000   1.0000   1.0000   1.0000

          k = 0.0000-0.3849 0.0000 (  2186 PWs)   bands (ev):

   -85.8480 -47.6874 -47.6535 -47.5863 -21.3707 -21.2366 -21.2185 -21.0269
   -20.6323 -20.5950 -20.5181 -14.2307 -13.7161  -6.8082  -5.8940  -5.5324
    -4.5820  -3.3990  -2.9915  -2.8799

     occupation numbers 
     1.0000   1.0000   1.0000   1.0000   1.0000   1.0000   1.0000   1.0000
     1.0000   1.0000   1.0000   1.0000   1.0000   1.0000   1.0000   1.0000
     1.0000   1.0000   1.0000   1.0000

          k = 0.0000-0.1925 0.0000 (  2193 PWs)   bands (ev):

   -85.8535 -47.6624 -47.5929 -47.5554 -21.1878 -21.0045 -20.8643 -20.8053
   -20.7271 -20.3917 -20.3316 -15.1898 -14.2295  -6.7902  -4.9278  -4.6298
    -3.8525  -3.7944  -2.7100  -2.5695

     occupation numbers 
     1.0000   1.0000   1.0000   1.0000   1.0000   1.0000   1.0000   1.0000
     1.0000   1.0000   1.0000   1.0000   1.0000   1.0000   1.0000   1.0000
     1.0000   1.0000   1.0000   1.0000

          k = 0.1667-0.0962 0.0000 (  2193 PWs)   bands (ev):

   -85.8535 -47.6624 -47.5928 -47.5554 -21.1878 -21.0045 -20.8643 -20.8053
   -20.7271 -20.3917 -20.3316 -15.1898 -14.2295  -6.7902  -4.9278  -4.6298
    -3.8525  -3.7944  -2.7100  -2.5695

     occupation numbers 
     1.0000   1.0000   1.0000   1.0000   1.0000   1.0000   1.0000   1.0000
     1.0000   1.0000   1.0000   1.0000   1.0000   1.0000   1.0000   1.0000
     1.0000   1.0000   1.0000   1.0000

          k = 0.1667 0.0962 0.0000 (  2193 PWs)   bands (ev):

   -85.8535 -47.6624 -47.5929 -47.5554 -21.1878 -21.0045 -20.8643 -20.8053
   -20.7271 -20.3917 -20.3316 -15.1898 -14.2295  -6.7902  -4.9278  -4.6298
    -3.8525  -3.7944  -2.7100  -2.5695

     occupation numbers 
     1.0000   1.0000   1.0000   1.0000   1.0000   1.0000   1.0000   1.0000
     1.0000   1.0000   1.0000   1.0000   1.0000   1.0000   1.0000   1.0000
     1.0000   1.0000   1.0000   1.0000

          k = 0.1667 0.2887 0.0000 (  2186 PWs)   bands (ev):

   -85.8486 -47.6588 -47.6576 -47.5803 -21.5014 -21.0337 -21.0152 -20.7660
   -20.6742 -20.6293 -20.4756 -14.4983 -13.8650  -6.4566  -5.4209  -5.3018
    -4.9795  -3.5768  -2.8513  -2.7511

     occupation numbers 
     1.0000   1.0000   1.0000   1.0000   1.0000   1.0000   1.0000   1.0000
     1.0000   1.0000   1.0000   1.0000   1.0000   1.0000   1.0000   1.0000
     1.0000   1.0000   1.0000   1.0000

          k = 0.1667-0.6736 0.0000 (  2187 PWs)   bands (ev):

   -85.8488 -47.7260 -47.6418 -47.6124 -21.6980 -21.2712 -21.1932 -21.0490
   -20.9947 -20.5930 -20.2999 -13.6349 -13.3982  -6.9768  -6.5612  -5.4858
    -4.9947  -3.9154  -3.5635  -2.4033

     occupation numbers 
     1.0000   1.0000   1.0000   1.0000   1.0000   1.0000   1.0000   1.0000
     1.0000   1.0000   1.0000   1.0000   1.0000   1.0000   1.0000   1.0000
     1.0000   1.0000   1.0000   1.0000

          k = 0.1667-0.4811 0.0000 (  2187 PWs)   bands (ev):

   -85.8488 -47.7260 -47.6418 -47.6124 -21.6980 -21.2712 -21.1932 -21.0490
   -20.9947 -20.5930 -20.2999 -13.6349 -13.3982  -6.9768  -6.5612  -5.4858
    -4.9947  -3.9154  -3.5635  -2.4033

     occupation numbers 
     1.0000   1.0000   1.0000   1.0000   1.0000   1.0000   1.0000   1.0000
     1.0000   1.0000   1.0000   1.0000   1.0000   1.0000   1.0000   1.0000
     1.0000   1.0000   1.0000   1.0000

          k = 0.1667-0.2887 0.0000 (  2186 PWs)   bands (ev):

   -85.8486 -47.6588 -47.6576 -47.5804 -21.5014 -21.0337 -21.0152 -20.7660
   -20.6742 -20.6293 -20.4756 -14.4983 -13.8650  -6.4566  -5.4209  -5.3018
    -4.9795  -3.5768  -2.8513  -2.7511

     occupation numbers 
     1.0000   1.0000   1.0000   1.0000   1.0000   1.0000   1.0000   1.0000
     1.0000   1.0000   1.0000   1.0000   1.0000   1.0000   1.0000   1.0000
     1.0000   1.0000   1.0000   1.0000

          k = 0.3333-0.1925 0.0000 (  2186 PWs)   bands (ev):

   -85.8480 -47.6874 -47.6535 -47.5863 -21.3707 -21.2365 -21.2185 -21.0269
   -20.6323 -20.5950 -20.5180 -14.2307 -13.7161  -6.8082  -5.8940  -5.5324
    -4.5820  -3.3990  -2.9915  -2.8799

     occupation numbers 
     1.0000   1.0000   1.0000   1.0000   1.0000   1.0000   1.0000   1.0000
     1.0000   1.0000   1.0000   1.0000   1.0000   1.0000   1.0000   1.0000
     1.0000   1.0000   1.0000   1.0000

          k = 0.3333 0.0000 0.0000 (  2186 PWs)   bands (ev):

   -85.8486 -47.6588 -47.6576 -47.5804 -21.5013 -21.0338 -21.0152 -20.7660
   -20.6742 -20.6293 -20.4756 -14.4983 -13.8650  -6.4566  -5.4209  -5.3018
    -4.9795  -3.5768  -2.8513  -2.7511

     occupation numbers 
     1.0000   1.0000   1.0000   1.0000   1.0000   1.0000   1.0000   1.0000
     1.0000   1.0000   1.0000   1.0000   1.0000   1.0000   1.0000   1.0000
     1.0000   1.0000   1.0000   1.0000

          k = 0.3333 0.1925 0.0000 (  2186 PWs)   bands (ev):

   -85.8480 -47.6874 -47.6535 -47.5863 -21.3707 -21.2366 -21.2185 -21.0269
   -20.6323 -20.5950 -20.5180 -14.2307 -13.7161  -6.8082  -5.8940  -5.5324
    -4.5820  -3.3990  -2.9915  -2.8799

     occupation numbers 
     1.0000   1.0000   1.0000   1.0000   1.0000   1.0000   1.0000   1.0000
     1.0000   1.0000   1.0000   1.0000   1.0000   1.0000   1.0000   1.0000
     1.0000   1.0000   1.0000   1.0000

          k = 0.3333-0.7698 0.0000 (  2187 PWs)   bands (ev):

   -85.8488 -47.7260 -47.6418 -47.6124 -21.6980 -21.2712 -21.1932 -21.0490
   -20.9947 -20.5930 -20.3000 -13.6349 -13.3982  -6.9768  -6.5612  -5.4858
    -4.9947  -3.9154  -3.5635  -2.4033

     occupation numbers 
     1.0000   1.0000   1.0000   1.0000   1.0000   1.0000   1.0000   1.0000
     1.0000   1.0000   1.0000   1.0000   1.0000   1.0000   1.0000   1.0000
     1.0000   1.0000   1.0000   1.0000

          k = 0.3333-0.5774 0.0000 (  2196 PWs)   bands (ev):

   -85.8596 -47.6993 -47.6881 -47.6418 -22.2637 -21.1870 -21.1732 -21.0824
   -21.0704 -21.0426 -20.9609 -13.3161 -13.2038  -7.0580  -6.4106  -5.5725
    -5.1848  -4.6439  -4.0914  -2.1049

     occupation numbers 
     1.0000   1.0000   1.0000   1.0000   1.0000   1.0000   1.0000   1.0000
     1.0000   1.0000   1.0000   1.0000   1.0000   1.0000   1.0000   1.0000
     1.0000   1.0000   1.0000   1.0000

          k = 0.3333-0.3849 0.0000 (  2187 PWs)   bands (ev):

   -85.8488 -47.7260 -47.6418 -47.6124 -21.6980 -21.2712 -21.1932 -21.0490
   -20.9947 -20.5930 -20.3000 -13.6349 -13.3982  -6.9768  -6.5612  -5.4858
    -4.9947  -3.9154  -3.5635  -2.4033

     occupation numbers 
     1.0000   1.0000   1.0000   1.0000   1.0000   1.0000   1.0000   1.0000
     1.0000   1.0000   1.0000   1.0000   1.0000   1.0000   1.0000   1.0000
     1.0000   1.0000   1.0000   1.0000

          k =-0.5000 0.2887 0.0000 (  2208 PWs)   bands (ev):

   -85.8639 -47.7613 -47.6532 -47.6096 -22.1069 -22.0008 -21.5561 -21.3403
   -21.1906 -20.9604 -20.7386 -13.6153 -13.4044  -7.4871  -6.5545  -5.7686
    -4.9002  -3.7625  -2.4858  -2.3672

     occupation numbers 
     1.0000   1.0000   1.0000   1.0000   1.0000   1.0000   1.0000   1.0000
     1.0000   1.0000   1.0000   1.0000   1.0000   1.0000   1.0000   1.0000
     1.0000   1.0000   1.0000   1.0000

          k =-0.5000 0.4811 0.0000 (  2187 PWs)   bands (ev):

   -85.8488 -47.7260 -47.6418 -47.6124 -21.6980 -21.2712 -21.1931 -21.0490
   -20.9947 -20.5930 -20.3000 -13.6349 -13.3982  -6.9768  -6.5612  -5.4858
    -4.9947  -3.9154  -3.5635  -2.4033

     occupation numbers 
     1.0000   1.0000   1.0000   1.0000   1.0000   1.0000   1.0000   1.0000
     1.0000   1.0000   1.0000   1.0000   1.0000   1.0000   1.0000   1.0000
     1.0000   1.0000   1.0000   1.0000

          k =-0.5000 0.6736 0.0000 (  2187 PWs)   bands (ev):

   -85.8488 -47.7260 -47.6418 -47.6124 -21.6980 -21.2712 -21.1931 -21.0490
   -20.9947 -20.5930 -20.3000 -13.6349 -13.3982  -6.9768  -6.5612  -5.4858
    -4.9947  -3.9154  -3.5635  -2.4033

     occupation numbers 
     1.0000   1.0000   1.0000   1.0000   1.0000   1.0000   1.0000   1.0000
     1.0000   1.0000   1.0000   1.0000   1.0000   1.0000   1.0000   1.0000
     1.0000   1.0000   1.0000   1.0000

          k =-0.5000-0.2887 0.0000 (  2208 PWs)   bands (ev):

   -85.8639 -47.7613 -47.6532 -47.6096 -22.1069 -22.0008 -21.5561 -21.3404
   -21.1906 -20.9604 -20.7386 -13.6153 -13.4044  -7.4871  -6.5545  -5.7686
    -4.9002  -3.7625  -2.4858  -2.3672

     occupation numbers 
     1.0000   1.0000   1.0000   1.0000   1.0000   1.0000   1.0000   1.0000
     1.0000   1.0000   1.0000   1.0000   1.0000   1.0000   1.0000   1.0000
     1.0000   1.0000   1.0000   1.0000

          k =-0.5000-0.0962 0.0000 (  2187 PWs)   bands (ev):

   -85.8488 -47.7260 -47.6418 -47.6124 -21.6980 -21.2712 -21.1931 -21.0490
   -20.9947 -20.5930 -20.3000 -13.6349 -13.3982  -6.9768  -6.5612  -5.4858
    -4.9947  -3.9154  -3.5635  -2.4033

     occupation numbers 
     1.0000   1.0000   1.0000   1.0000   1.0000   1.0000   1.0000   1.0000
     1.0000   1.0000   1.0000   1.0000   1.0000   1.0000   1.0000   1.0000
     1.0000   1.0000   1.0000   1.0000

          k =-0.5000 0.0962 0.0000 (  2187 PWs)   bands (ev):

   -85.8488 -47.7260 -47.6418 -47.6124 -21.6980 -21.2712 -21.1931 -21.0490
   -20.9947 -20.5930 -20.3000 -13.6349 -13.3982  -6.9768  -6.5612  -5.4858
    -4.9947  -3.9154  -3.5635  -2.4033

     occupation numbers 
     1.0000   1.0000   1.0000   1.0000   1.0000   1.0000   1.0000   1.0000
     1.0000   1.0000   1.0000   1.0000   1.0000   1.0000   1.0000   1.0000
     1.0000   1.0000   1.0000   1.0000

          k =-0.3333 0.1925 0.0000 (  2186 PWs)   bands (ev):

   -85.8480 -47.6874 -47.6535 -47.5863 -21.3707 -21.2365 -21.2185 -21.0269
   -20.6323 -20.5950 -20.5180 -14.2307 -13.7161  -6.8082  -5.8940  -5.5324
    -4.5820  -3.3990  -2.9915  -2.8799

     occupation numbers 
     1.0000   1.0000   1.0000   1.0000   1.0000   1.0000   1.0000   1.0000
     1.0000   1.0000   1.0000   1.0000   1.0000   1.0000   1.0000   1.0000
     1.0000   1.0000   1.0000   1.0000

          k =-0.3333 0.3849 0.0000 (  2187 PWs)   bands (ev):

   -85.8488 -47.7260 -47.6418 -47.6124 -21.6980 -21.2712 -21.1932 -21.0490
   -20.9947 -20.5930 -20.3000 -13.6349 -13.3982  -6.9768  -6.5612  -5.4858
    -4.9947  -3.9154  -3.5635  -2.4033

     occupation numbers 
     1.0000   1.0000   1.0000   1.0000   1.0000   1.0000   1.0000   1.0000
     1.0000   1.0000   1.0000   1.0000   1.0000   1.0000   1.0000   1.0000
     1.0000   1.0000   1.0000   1.0000

          k =-0.3333 0.5774 0.0000 (  2196 PWs)   bands (ev):

   -85.8596 -47.6993 -47.6881 -47.6418 -22.2637 -21.1870 -21.1732 -21.0824
   -21.0704 -21.0426 -20.9609 -13.3161 -13.2038  -7.0580  -6.4106  -5.5725
    -5.1848  -4.6439  -4.0914  -2.1049

     occupation numbers 
     1.0000   1.0000   1.0000   1.0000   1.0000   1.0000   1.0000   1.0000
     1.0000   1.0000   1.0000   1.0000   1.0000   1.0000   1.0000   1.0000
     1.0000   1.0000   1.0000   1.0000

          k =-0.3333-0.3849 0.0000 (  2187 PWs)   bands (ev):

   -85.8488 -47.7260 -47.6418 -47.6124 -21.6980 -21.2712 -21.1932 -21.0490
   -20.9947 -20.5930 -20.3000 -13.6349 -13.3982  -6.9768  -6.5612  -5.4858
    -4.9947  -3.9154  -3.5635  -2.4033

     occupation numbers 
     1.0000   1.0000   1.0000   1.0000   1.0000   1.0000   1.0000   1.0000
     1.0000   1.0000   1.0000   1.0000   1.0000   1.0000   1.0000   1.0000
     1.0000   1.0000   1.0000   1.0000

          k =-0.3333-0.1925 0.0000 (  2186 PWs)   bands (ev):

   -85.8480 -47.6874 -47.6535 -47.5863 -21.3707 -21.2366 -21.2185 -21.0269
   -20.6323 -20.5950 -20.5180 -14.2307 -13.7161  -6.8082  -5.8940  -5.5324
    -4.5820  -3.3990  -2.9915  -2.8799

     occupation numbers 
     1.0000   1.0000   1.0000   1.0000   1.0000   1.0000   1.0000   1.0000
     1.0000   1.0000   1.0000   1.0000   1.0000   1.0000   1.0000   1.0000
     1.0000   1.0000   1.0000   1.0000

          k =-0.3333 0.0000 0.0000 (  2186 PWs)   bands (ev):

   -85.8486 -47.6588 -47.6576 -47.5804 -21.5013 -21.0338 -21.0152 -20.7660
   -20.6742 -20.6293 -20.4756 -14.4983 -13.8650  -6.4566  -5.4209  -5.3018
    -4.9795  -3.5768  -2.8513  -2.7511

     occupation numbers 
     1.0000   1.0000   1.0000   1.0000   1.0000   1.0000   1.0000   1.0000
     1.0000   1.0000   1.0000   1.0000   1.0000   1.0000   1.0000   1.0000
     1.0000   1.0000   1.0000   1.0000

          k =-0.1667 0.0962 0.0000 (  2193 PWs)   bands (ev):

   -85.8535 -47.6624 -47.5928 -47.5554 -21.1878 -21.0045 -20.8643 -20.8053
   -20.7271 -20.3917 -20.3316 -15.1898 -14.2295  -6.7902  -4.9278  -4.6298
    -3.8525  -3.7944  -2.7100  -2.5695

     occupation numbers 
     1.0000   1.0000   1.0000   1.0000   1.0000   1.0000   1.0000   1.0000
     1.0000   1.0000   1.0000   1.0000   1.0000   1.0000   1.0000   1.0000
     1.0000   1.0000   1.0000   1.0000

          k =-0.1667 0.2887 0.0000 (  2186 PWs)   bands (ev):

   -85.8486 -47.6588 -47.6576 -47.5804 -21.5014 -21.0337 -21.0152 -20.7660
   -20.6742 -20.6293 -20.4756 -14.4983 -13.8650  -6.4566  -5.4209  -5.3018
    -4.9795  -3.5768  -2.8513  -2.7511

     occupation numbers 
     1.0000   1.0000   1.0000   1.0000   1.0000   1.0000   1.0000   1.0000
     1.0000   1.0000   1.0000   1.0000   1.0000   1.0000   1.0000   1.0000
     1.0000   1.0000   1.0000   1.0000

          k =-0.1667 0.4811 0.0000 (  2187 PWs)   bands (ev):

   -85.8488 -47.7260 -47.6418 -47.6124 -21.6980 -21.2712 -21.1932 -21.0490
   -20.9947 -20.5930 -20.2999 -13.6349 -13.3982  -6.9768  -6.5612  -5.4858
    -4.9947  -3.9154  -3.5635  -2.4033

     occupation numbers 
     1.0000   1.0000   1.0000   1.0000   1.0000   1.0000   1.0000   1.0000
     1.0000   1.0000   1.0000   1.0000   1.0000   1.0000   1.0000   1.0000
     1.0000   1.0000   1.0000   1.0000

          k =-0.1667-0.4811 0.0000 (  2187 PWs)   bands (ev):

   -85.8488 -47.7260 -47.6418 -47.6124 -21.6980 -21.2712 -21.1932 -21.0490
   -20.9947 -20.5930 -20.2999 -13.6349 -13.3982  -6.9768  -6.5612  -5.4858
    -4.9947  -3.9154  -3.5635  -2.4033

     occupation numbers 
     1.0000   1.0000   1.0000   1.0000   1.0000   1.0000   1.0000   1.0000
     1.0000   1.0000   1.0000   1.0000   1.0000   1.0000   1.0000   1.0000
     1.0000   1.0000   1.0000   1.0000

          k =-0.1667-0.2887 0.0000 (  2186 PWs)   bands (ev):

   -85.8486 -47.6588 -47.6576 -47.5803 -21.5014 -21.0337 -21.0152 -20.7660
   -20.6742 -20.6293 -20.4756 -14.4983 -13.8650  -6.4566  -5.4209  -5.3018
    -4.9795  -3.5768  -2.8513  -2.7511

     occupation numbers 
     1.0000   1.0000   1.0000   1.0000   1.0000   1.0000   1.0000   1.0000
     1.0000   1.0000   1.0000   1.0000   1.0000   1.0000   1.0000   1.0000
     1.0000   1.0000   1.0000   1.0000

          k =-0.1667-0.0962 0.0000 (  2193 PWs)   bands (ev):

   -85.8535 -47.6624 -47.5929 -47.5554 -21.1878 -21.0045 -20.8643 -20.8053
   -20.7271 -20.3917 -20.3316 -15.1898 -14.2295  -6.7902  -4.9278  -4.6298
    -3.8525  -3.7944  -2.7100  -2.5695

     occupation numbers 
     1.0000   1.0000   1.0000   1.0000   1.0000   1.0000   1.0000   1.0000
     1.0000   1.0000   1.0000   1.0000   1.0000   1.0000   1.0000   1.0000
     1.0000   1.0000   1.0000   1.0000

     highest occupied level (ev):    -2.1049

!    total energy              =    -570.11479328 Ry
     estimated scf accuracy    <       0.00000016 Ry

     The total energy is the sum of the following terms:
     one-electron contribution =   -4039.28750927 Ry
     hartree contribution      =    2020.04090229 Ry
     xc contribution           =     -49.44021907 Ry
     ewald contribution        =    1498.57203277 Ry

     convergence has been achieved in  11 iterations

     Writing all to output data dir ./WS2.save/

     init_run     :      0.29s CPU      0.25s WALL (       1 calls)
     electrons    :      2.43s CPU      1.38s WALL (       1 calls)

     Called by init_run:
     wfcinit      :      0.08s CPU      0.05s WALL (       1 calls)
     wfcinit:atom :      0.00s CPU      0.00s WALL (       6 calls)
     wfcinit:wfcr :      0.07s CPU      0.04s WALL (       6 calls)
     potinit      :      0.04s CPU      0.03s WALL (       1 calls)
     hinit0       :      0.17s CPU      0.17s WALL (       1 calls)

     Called by electrons:
     c_bands      :      2.13s CPU      1.19s WALL (      11 calls)
     sum_band     :      0.24s CPU      0.14s WALL (      11 calls)
     v_of_rho     :      0.03s CPU      0.01s WALL (      12 calls)
     v_h          :      0.01s CPU      0.01s WALL (      12 calls)
     v_xc         :      0.02s CPU      0.01s WALL (      12 calls)
     mix_rho      :      0.01s CPU      0.01s WALL (      11 calls)

     Called by c_bands:
     init_us_2    :      0.01s CPU      0.01s WALL (     138 calls)
     init_us_2:cp :      0.01s CPU      0.01s WALL (     138 calls)
     cegterg      :      1.93s CPU      1.06s WALL (      66 calls)

     Called by sum_band:
     sum_band:wei :      0.00s CPU      0.00s WALL (      11 calls)
     sum_band:loo :      0.22s CPU      0.13s WALL (      11 calls)
     sum_band:buf :      0.00s CPU      0.00s WALL (      66 calls)
     sum_band:ini :      0.01s CPU      0.01s WALL (      66 calls)

     Called by *egterg:
     cdiaghg      :      0.42s CPU      0.22s WALL (     282 calls)
     cegterg:over :      0.09s CPU      0.07s WALL (     216 calls)
     cegterg:upda :      0.06s CPU      0.03s WALL (     216 calls)
     cegterg:last :      0.02s CPU      0.01s WALL (      66 calls)
     h_psi        :      1.35s CPU      0.74s WALL (     288 calls)
     g_psi        :      0.00s CPU      0.00s WALL (     216 calls)

     Called by h_psi:
     h_psi:calbec :      0.14s CPU      0.06s WALL (     288 calls)
     vloc_psi     :      1.13s CPU      0.64s WALL (     288 calls)
     add_vuspsi   :      0.08s CPU      0.04s WALL (     288 calls)

     General routines
     calbec       :      0.14s CPU      0.06s WALL (     288 calls)
     fft          :      0.18s CPU      0.17s WALL (      35 calls)
     ffts         :      0.00s CPU      0.00s WALL (      11 calls)
     fftw         :      1.28s CPU      0.73s WALL (    8474 calls)

     Parallel routines

     PWSCF        :      2.85s CPU      2.15s WALL


   This run was terminated on:  16:43:23   4Jul2023            

=------------------------------------------------------------------------------=
   JOB DONE.
=------------------------------------------------------------------------------=
Note: The following floating-point exceptions are signalling: IEEE_DENORMAL
Note: The following floating-point exceptions are signalling: IEEE_DENORMAL
Note: The following floating-point exceptions are signalling: IEEE_DENORMAL
Note: The following floating-point exceptions are signalling: IEEE_DENORMAL
Note: The following floating-point exceptions are signalling: IEEE_DENORMAL
Note: The following floating-point exceptions are signalling: IEEE_DENORMAL
Note: The following floating-point exceptions are signalling: IEEE_DENORMAL
Note: The following floating-point exceptions are signalling: IEEE_DENORMAL
Note: The following floating-point exceptions are signalling: IEEE_DENORMAL
Note: The following floating-point exceptions are signalling: IEEE_DENORMAL
Note: The following floating-point exceptions are signalling: IEEE_DENORMAL
Note: The following floating-point exceptions are signalling: IEEE_DENORMAL
Note: The following floating-point exceptions are signalling: IEEE_DENORMAL
Note: The following floating-point exceptions are signalling: IEEE_DENORMAL
Note: The following floating-point exceptions are signalling: IEEE_DENORMAL
Note: The following floating-point exceptions are signalling: IEEE_DENORMAL
Note: The following floating-point exceptions are signalling: IEEE_DENORMAL
Note: The following floating-point exceptions are signalling: IEEE_DENORMAL
Note: The following floating-point exceptions are signalling: IEEE_DENORMAL
Note: The following floating-point exceptions are signalling: IEEE_DENORMAL
Note: The following floating-point exceptions are signalling: IEEE_DENORMAL
Note: The following floating-point exceptions are signalling: IEEE_DENORMAL
Note: The following floating-point exceptions are signalling: IEEE_DENORMAL
Note: The following floating-point exceptions are signalling: IEEE_DENORMAL
Note: The following floating-point exceptions are signalling: IEEE_DENORMAL
Note: The following floating-point exceptions are signalling: IEEE_DENORMAL
Note: The following floating-point exceptions are signalling: IEEE_DENORMAL
Note: The following floating-point exceptions are signalling: IEEE_DENORMAL
Note: The following floating-point exceptions are signalling: IEEE_DENORMAL
Note: The following floating-point exceptions are signalling: IEEE_DENORMAL
Note: The following floating-point exceptions are signalling: IEEE_DENORMAL
Note: The following floating-point exceptions are signalling: IEEE_DENORMAL
Note: The following floating-point exceptions are signalling: IEEE_DENORMAL
Note: The following floating-point exceptions are signalling: IEEE_DENORMAL
Note: The following floating-point exceptions are signalling: IEEE_DENORMAL
Note: The following floating-point exceptions are signalling: IEEE_DENORMAL
Note: The following floating-point exceptions are signalling: IEEE_DENORMAL
Note: The following floating-point exceptions are signalling: IEEE_DENORMAL
Note: The following floating-point exceptions are signalling: IEEE_DENORMAL
Note: The following floating-point exceptions are signalling: IEEE_DENORMAL
Note: The following floating-point exceptions are signalling: IEEE_DENORMAL
Note: The following floating-point exceptions are signalling: IEEE_DENORMAL
Note: The following floating-point exceptions are signalling: IEEE_DENORMAL
Note: The following floating-point exceptions are signalling: IEEE_DENORMAL
Note: The following floating-point exceptions are signalling: IEEE_DENORMAL
Note: The following floating-point exceptions are signalling: IEEE_DENORMAL
Note: The following floating-point exceptions are signalling: IEEE_DENORMAL
Note: The following floating-point exceptions are signalling: IEEE_DENORMAL
Note: The following floating-point exceptions are signalling: IEEE_DENORMAL
Note: The following floating-point exceptions are signalling: IEEE_DENORMAL
Note: The following floating-point exceptions are signalling: IEEE_DENORMAL
Note: The following floating-point exceptions are signalling: IEEE_DENORMAL
Note: The following floating-point exceptions are signalling: IEEE_DENORMAL
Note: The following floating-point exceptions are signalling: IEEE_DENORMAL
Note: The following floating-point exceptions are signalling: IEEE_DENORMAL
Note: The following floating-point exceptions are signalling: IEEE_DENORMAL
Note: The following floating-point exceptions are signalling: IEEE_DENORMAL
Note: The following floating-point exceptions are signalling: IEEE_DENORMAL
Note: The following floating-point exceptions are signalling: IEEE_DENORMAL
Note: The following floating-point exceptions are signalling: IEEE_DENORMAL
Note: The following floating-point exceptions are signalling: IEEE_DENORMAL
Note: The following floating-point exceptions are signalling: IEEE_DENORMAL
Note: The following floating-point exceptions are signalling: IEEE_DENORMAL
Note: The following floating-point exceptions are signalling: IEEE_DENORMAL
Note: The following floating-point exceptions are signalling: IEEE_DENORMAL
Note: The following floating-point exceptions are signalling: IEEE_DENORMAL
Note: The following floating-point exceptions are signalling: IEEE_DENORMAL
Note: The following floating-point exceptions are signalling: IEEE_DENORMAL
Note: The following floating-point exceptions are signalling: IEEE_DENORMAL
Note: The following floating-point exceptions are signalling: IEEE_DENORMAL
Note: The following floating-point exceptions are signalling: IEEE_DENORMAL
Note: The following floating-point exceptions are signalling: IEEE_DENORMAL
Note: The following floating-point exceptions are signalling: IEEE_DENORMAL
Note: The following floating-point exceptions are signalling: IEEE_DENORMAL
Note: The following floating-point exceptions are signalling: IEEE_DENORMAL
Note: The following floating-point exceptions are signalling: IEEE_DENORMAL
Note: The following floating-point exceptions are signalling: IEEE_DENORMAL
Note: The following floating-point exceptions are signalling: IEEE_DENORMAL
Note: The following floating-point exceptions are signalling: IEEE_DENORMAL
Note: The following floating-point exceptions are signalling: IEEE_DENORMAL
Note: The following floating-point exceptions are signalling: IEEE_DENORMAL
Note: The following floating-point exceptions are signalling: IEEE_DENORMAL
Note: The following floating-point exceptions are signalling: IEEE_DENORMAL
Note: The following floating-point exceptions are signalling: IEEE_DENORMAL
Note: The following floating-point exceptions are signalling: IEEE_DENORMAL
Note: The following floating-point exceptions are signalling: IEEE_DENORMAL
Note: The following floating-point exceptions are signalling: IEEE_DENORMAL
Note: The following floating-point exceptions are signalling: IEEE_DENORMAL
Note: The following floating-point exceptions are signalling: IEEE_DENORMAL
Note: The following floating-point exceptions are signalling: IEEE_DENORMAL
Note: The following floating-point exceptions are signalling: IEEE_DENORMAL
Note: The following floating-point exceptions are signalling: IEEE_DENORMAL
Note: The following floating-point exceptions are signalling: IEEE_DENORMAL
Note: The following floating-point exceptions are signalling: IEEE_DENORMAL
Note: The following floating-point exceptions are signalling: IEEE_DENORMAL
Note: The following floating-point exceptions are signalling: IEEE_DENORMAL
Note: The following floating-point exceptions are signalling: IEEE_DENORMAL
Note: The following floating-point exceptions are signalling: IEEE_DENORMAL
Note: The following floating-point exceptions are signalling: IEEE_DENORMAL
Note: The following floating-point exceptions are signalling: IEEE_DENORMAL
Note: The following floating-point exceptions are signalling: IEEE_DENORMAL
Note: The following floating-point exceptions are signalling: IEEE_DENORMAL
Note: The following floating-point exceptions are signalling: IEEE_DENORMAL
Note: The following floating-point exceptions are signalling: IEEE_DENORMAL
Note: The following floating-point exceptions are signalling: IEEE_DENORMAL
Note: The following floating-point exceptions are signalling: IEEE_DENORMAL
Note: The following floating-point exceptions are signalling: IEEE_DENORMAL
Note: The following floating-point exceptions are signalling: IEEE_DENORMAL
Note: The following floating-point exceptions are signalling: IEEE_DENORMAL
Note: The following floating-point exceptions are signalling: IEEE_DENORMAL
Note: The following floating-point exceptions are signalling: IEEE_DENORMAL
Note: The following floating-point exceptions are signalling: IEEE_DENORMAL
