
     Program PWSCF v.7.1 starts on 26Apr2023 at  0: 3: 4 

     This program is part of the open-source Quantum ESPRESSO suite
     for quantum simulation of materials; please cite
         "P. Giannozzi et al., J. Phys.:Condens. Matter 21 395502 (2009);
         "P. Giannozzi et al., J. Phys.:Condens. Matter 29 465901 (2017);
         "P. Giannozzi et al., J. Chem. Phys. 152 154105 (2020);
          URL http://www.quantum-espresso.org", 
     in publications or presentations arising from this work. More details at
     http://www.quantum-espresso.org/quote

     Parallel version (MPI & OpenMP), running on     252 processor cores
     Number of MPI processes:               126
     Threads/MPI process:                     2

     MPI processes distributed on     1 nodes
     483367 MiB available memory on the printing compute node when the environment starts

     Reading input from wfn.in

     Current dimensions of program PWSCF are:
     Max number of different atomic species (ntypx) = 10
     Max number of k-points (npk) =  40000
     Max angular momentum in pseudopotentials (lmaxx) =  4

     Atomic positions and unit cell read from directory:
     ./WS2.save/
     Atomic positions from file used, from input discarded


     K-points division:     npool     =       7
     R & G space division:  proc/nbgrp/npool/nimage =      18
     Subspace diagonalization in iterative solution of the eigenvalue problem:
     a serial algorithm will be used


     Parallelization info
     --------------------
     sticks:   dense  smooth     PW     G-vecs:    dense   smooth      PW
     Min          11      11      4                  973      973     224
     Max          12      12      5                  998      998     247
     Sum         199     199     73                17673    17673    4175

     Using Slab Decomposition



     bravais-lattice index     =            0
     lattice parameter (alat)  =       5.9526  a.u.
     unit-cell volume          =    1449.7341 (a.u.)^3
     number of atoms/cell      =            3
     number of atomic types    =            2
     number of electrons       =        26.00
     number of Kohn-Sham states=           20
     kinetic-energy cutoff     =      20.0000  Ry
     charge density cutoff     =      80.0000  Ry
     Exchange-correlation= PBE
                           (   1   4   3   4   0   0   0)

     celldm(1)=   5.952637  celldm(2)=   0.000000  celldm(3)=   0.000000
     celldm(4)=   0.000000  celldm(5)=   0.000000  celldm(6)=   0.000000

     crystal axes: (cart. coord. in units of alat)
               a(1) = (   1.000000   0.000000   0.000000 )  
               a(2) = (   0.500000   0.866025   0.000000 )  
               a(3) = (   0.000000   0.000000   7.936508 )  

     reciprocal axes: (cart. coord. in units 2 pi/alat)
               b(1) = (  1.000000 -0.577350  0.000000 )  
               b(2) = (  0.000000  1.154701  0.000000 )  
               b(3) = (  0.000000  0.000000  0.126000 )  


     PseudoPot. # 1 for W  read from file:
     /work2/08702/wkim94/frontera/pseudo/pseudodojo/nc-sr-04_pbe_standard_upf/W.upf
     MD5 check sum: cb94e439a9e4ea809831d6e90c63864e
     Pseudo is Norm-conserving + core correction, Zval = 14.0
     Generated using ONCVPSP code by D. R. Hamann
     Using radial grid of 1396 points,  8 beta functions with: 
                l(1) =   0
                l(2) =   0
                l(3) =   1
                l(4) =   1
                l(5) =   2
                l(6) =   2
                l(7) =   3
                l(8) =   3

     PseudoPot. # 2 for S  read from file:
     /work2/08702/wkim94/frontera/pseudo/pseudodojo/nc-sr-04_pbe_standard_upf/S.upf
     MD5 check sum: 6027e7704d67ae28863b2247926ce6f3
     Pseudo is Norm-conserving + core correction, Zval =  6.0
     Generated using ONCVPSP code by D. R. Hamann
     Using radial grid of 1146 points,  6 beta functions with: 
                l(1) =   0
                l(2) =   0
                l(3) =   1
                l(4) =   1
                l(5) =   2
                l(6) =   2

     atomic species   valence    mass     pseudopotential
        W             14.00   183.84000     W ( 1.00)
        S              6.00    78.96000     S ( 1.00)

     No symmetry found


                                    s                        frac. trans.

      isym =  1     identity                                     

 cryst.   s( 1) = (     1          0          0      )
                  (     0          1          0      )
                  (     0          0          1      )

 cart.    s( 1) = (  1.0000000  0.0000000  0.0000000 )
                  (  0.0000000  1.0000000  0.0000000 )
                  (  0.0000000  0.0000000  1.0000000 )


   Cartesian axes

     site n.     atom                  positions (alat units)
         1           W   tau(   1) = (   0.5000000   0.2886751   3.9682540  )
         2           S   tau(   2) = (   1.0000000   0.5773503   3.4603175  )
         3           S   tau(   3) = (   1.0000000   0.5773503   4.4761905  )

   Crystallographic axes

     site n.     atom                  positions (cryst. coord.)
         1           W   tau(   1) = (  0.3333333  0.3333333  0.5000000  )
         2           S   tau(   2) = (  0.6666667  0.6666667  0.4360000  )
         3           S   tau(   3) = (  0.6666667  0.6666667  0.5640000  )

     number of k points=    63
                       cart. coord. in units 2pi/alat
        k(    1) = (   0.0000000   0.0000000   0.0000000), wk =   0.0317460
        k(    2) = (   0.7142857  -0.2474358   0.0000000), wk =   0.0317460
        k(    3) = (   0.4285714   0.0824786   0.0000000), wk =   0.0317460
        k(    4) = (   0.1428571   0.4123930   0.0000000), wk =   0.0317460
        k(    5) = (   0.8571429   0.1649572   0.0000000), wk =   0.0317460
        k(    6) = (   0.5714286   0.4948717   0.0000000), wk =   0.0317460
        k(    7) = (   0.2857143   0.8247861   0.0000000), wk =   0.0317460
        k(    8) = (   0.9047619  -0.4673788   0.0000000), wk =   0.0317460
        k(    9) = (   0.6190476  -0.1374643   0.0000000), wk =   0.0317460
        k(   10) = (   0.3333333   0.1924501   0.0000000), wk =   0.0317460
        k(   11) = (   0.0476190   0.5223645   0.0000000), wk =   0.0317460
        k(   12) = (   0.7619048   0.2749287   0.0000000), wk =   0.0317460
        k(   13) = (   0.4761905   0.6048431   0.0000000), wk =   0.0317460
        k(   14) = (   0.1904762   0.9347576   0.0000000), wk =   0.0317460
        k(   15) = (   0.8095238  -0.3574073   0.0000000), wk =   0.0317460
        k(   16) = (   0.5238095  -0.0274929   0.0000000), wk =   0.0317460
        k(   17) = (   0.2380952   0.3024216   0.0000000), wk =   0.0317460
        k(   18) = (   0.9523810   0.0549857   0.0000000), wk =   0.0317460
        k(   19) = (   0.6666667   0.3849002   0.0000000), wk =   0.0317460
        k(   20) = (   0.3809524   0.7148146   0.0000000), wk =   0.0317460
        k(   21) = (   0.0952381   1.0447291   0.0000000), wk =   0.0317460
        k(   22) = (   0.1428571   0.0274929   0.0000000), wk =   0.0317460
        k(   23) = (   0.8571429  -0.2199430   0.0000000), wk =   0.0317460
        k(   24) = (   0.5714286   0.1099715   0.0000000), wk =   0.0317460
        k(   25) = (   0.2857143   0.4398859   0.0000000), wk =   0.0317460
        k(   26) = (   0.0000000   0.7698004   0.0000000), wk =   0.0317460
        k(   27) = (   0.7142857   0.5223645   0.0000000), wk =   0.0317460
        k(   28) = (   0.4285714   0.8522790   0.0000000), wk =   0.0317460
        k(   29) = (   0.3333333  -0.1924501   0.0000000), wk =   0.0317460
        k(   30) = (   0.0476190   0.1374643   0.0000000), wk =   0.0317460
        k(   31) = (   0.7619048  -0.1099715   0.0000000), wk =   0.0317460
        k(   32) = (   0.4761905   0.2199430   0.0000000), wk =   0.0317460
        k(   33) = (   0.1904762   0.5498574   0.0000000), wk =   0.0317460
        k(   34) = (   0.9047619   0.3024216   0.0000000), wk =   0.0317460
        k(   35) = (   0.6190476   0.6323360   0.0000000), wk =   0.0317460
        k(   36) = (   0.2380952  -0.0824786   0.0000000), wk =   0.0317460
        k(   37) = (   0.9523810  -0.3299144   0.0000000), wk =   0.0317460
        k(   38) = (   0.6666667  -0.0000000   0.0000000), wk =   0.0317460
        k(   39) = (   0.3809524   0.3299144   0.0000000), wk =   0.0317460
        k(   40) = (   0.0952381   0.6598289   0.0000000), wk =   0.0317460
        k(   41) = (   0.8095238   0.4123930   0.0000000), wk =   0.0317460
        k(   42) = (   0.5238095   0.7423075   0.0000000), wk =   0.0317460
        k(   43) = (   0.5714286  -0.2749287   0.0000000), wk =   0.0317460
        k(   44) = (   0.2857143   0.0549857   0.0000000), wk =   0.0317460
        k(   45) = (   0.0000000   0.3849002   0.0000000), wk =   0.0317460
        k(   46) = (   0.7142857   0.1374643   0.0000000), wk =   0.0317460
        k(   47) = (   0.4285714   0.4673788   0.0000000), wk =   0.0317460
        k(   48) = (   0.1428571   0.7972932   0.0000000), wk =   0.0317460
        k(   49) = (   0.8571429   0.5498574   0.0000000), wk =   0.0317460
        k(   50) = (   0.4761905  -0.1649572   0.0000000), wk =   0.0317460
        k(   51) = (   0.1904762   0.1649572   0.0000000), wk =   0.0317460
        k(   52) = (   0.9047619  -0.0824786   0.0000000), wk =   0.0317460
        k(   53) = (   0.6190476   0.2474358   0.0000000), wk =   0.0317460
        k(   54) = (   0.3333333   0.5773503   0.0000000), wk =   0.0317460
        k(   55) = (   0.0476190   0.9072647   0.0000000), wk =   0.0317460
        k(   56) = (   0.7619048   0.6598289   0.0000000), wk =   0.0317460
        k(   57) = (   0.6666667  -0.3849002   0.0000000), wk =   0.0317460
        k(   58) = (   0.3809524  -0.0549857   0.0000000), wk =   0.0317460
        k(   59) = (   0.0952381   0.2749287   0.0000000), wk =   0.0317460
        k(   60) = (   0.8095238   0.0274929   0.0000000), wk =   0.0317460
        k(   61) = (   0.5238095   0.3574073   0.0000000), wk =   0.0317460
        k(   62) = (   0.2380952   0.6873217   0.0000000), wk =   0.0317460
        k(   63) = (   0.9523810   0.4398859   0.0000000), wk =   0.0317460

                       cryst. coord.
        k(    1) = (   0.0000000   0.0000000   0.0000000), wk =   0.0317460
        k(    2) = (   0.7142857   0.1428571   0.0000000), wk =   0.0317460
        k(    3) = (   0.4285714   0.2857143   0.0000000), wk =   0.0317460
        k(    4) = (   0.1428571   0.4285714   0.0000000), wk =   0.0317460
        k(    5) = (   0.8571429   0.5714286   0.0000000), wk =   0.0317460
        k(    6) = (   0.5714286   0.7142857   0.0000000), wk =   0.0317460
        k(    7) = (   0.2857143   0.8571429   0.0000000), wk =   0.0317460
        k(    8) = (   0.9047619   0.0476190   0.0000000), wk =   0.0317460
        k(    9) = (   0.6190476   0.1904762   0.0000000), wk =   0.0317460
        k(   10) = (   0.3333333   0.3333333   0.0000000), wk =   0.0317460
        k(   11) = (   0.0476190   0.4761905   0.0000000), wk =   0.0317460
        k(   12) = (   0.7619048   0.6190476   0.0000000), wk =   0.0317460
        k(   13) = (   0.4761905   0.7619048   0.0000000), wk =   0.0317460
        k(   14) = (   0.1904762   0.9047619   0.0000000), wk =   0.0317460
        k(   15) = (   0.8095238   0.0952381   0.0000000), wk =   0.0317460
        k(   16) = (   0.5238095   0.2380952   0.0000000), wk =   0.0317460
        k(   17) = (   0.2380952   0.3809524   0.0000000), wk =   0.0317460
        k(   18) = (   0.9523810   0.5238095   0.0000000), wk =   0.0317460
        k(   19) = (   0.6666667   0.6666667   0.0000000), wk =   0.0317460
        k(   20) = (   0.3809524   0.8095238   0.0000000), wk =   0.0317460
        k(   21) = (   0.0952381   0.9523810   0.0000000), wk =   0.0317460
        k(   22) = (   0.1428571   0.0952381   0.0000000), wk =   0.0317460
        k(   23) = (   0.8571429   0.2380952   0.0000000), wk =   0.0317460
        k(   24) = (   0.5714286   0.3809524   0.0000000), wk =   0.0317460
        k(   25) = (   0.2857143   0.5238095   0.0000000), wk =   0.0317460
        k(   26) = (   0.0000000   0.6666667   0.0000000), wk =   0.0317460
        k(   27) = (   0.7142857   0.8095238   0.0000000), wk =   0.0317460
        k(   28) = (   0.4285714   0.9523810   0.0000000), wk =   0.0317460
        k(   29) = (   0.3333333   0.0000000   0.0000000), wk =   0.0317460
        k(   30) = (   0.0476190   0.1428571   0.0000000), wk =   0.0317460
        k(   31) = (   0.7619048   0.2857143   0.0000000), wk =   0.0317460
        k(   32) = (   0.4761905   0.4285714   0.0000000), wk =   0.0317460
        k(   33) = (   0.1904762   0.5714286   0.0000000), wk =   0.0317460
        k(   34) = (   0.9047619   0.7142857   0.0000000), wk =   0.0317460
        k(   35) = (   0.6190476   0.8571429   0.0000000), wk =   0.0317460
        k(   36) = (   0.2380952   0.0476190   0.0000000), wk =   0.0317460
        k(   37) = (   0.9523810   0.1904762   0.0000000), wk =   0.0317460
        k(   38) = (   0.6666667   0.3333333   0.0000000), wk =   0.0317460
        k(   39) = (   0.3809524   0.4761905   0.0000000), wk =   0.0317460
        k(   40) = (   0.0952381   0.6190476   0.0000000), wk =   0.0317460
        k(   41) = (   0.8095238   0.7619048   0.0000000), wk =   0.0317460
        k(   42) = (   0.5238095   0.9047619   0.0000000), wk =   0.0317460
        k(   43) = (   0.5714286   0.0476190   0.0000000), wk =   0.0317460
        k(   44) = (   0.2857143   0.1904762   0.0000000), wk =   0.0317460
        k(   45) = (   0.0000000   0.3333333   0.0000000), wk =   0.0317460
        k(   46) = (   0.7142857   0.4761905   0.0000000), wk =   0.0317460
        k(   47) = (   0.4285714   0.6190476   0.0000000), wk =   0.0317460
        k(   48) = (   0.1428571   0.7619048   0.0000000), wk =   0.0317460
        k(   49) = (   0.8571429   0.9047619   0.0000000), wk =   0.0317460
        k(   50) = (   0.4761905   0.0952381   0.0000000), wk =   0.0317460
        k(   51) = (   0.1904762   0.2380952   0.0000000), wk =   0.0317460
        k(   52) = (   0.9047619   0.3809524   0.0000000), wk =   0.0317460
        k(   53) = (   0.6190476   0.5238095   0.0000000), wk =   0.0317460
        k(   54) = (   0.3333333   0.6666667   0.0000000), wk =   0.0317460
        k(   55) = (   0.0476190   0.8095238   0.0000000), wk =   0.0317460
        k(   56) = (   0.7619048   0.9523810   0.0000000), wk =   0.0317460
        k(   57) = (   0.6666667   0.0000000   0.0000000), wk =   0.0317460
        k(   58) = (   0.3809524   0.1428571   0.0000000), wk =   0.0317460
        k(   59) = (   0.0952381   0.2857143   0.0000000), wk =   0.0317460
        k(   60) = (   0.8095238   0.4285714   0.0000000), wk =   0.0317460
        k(   61) = (   0.5238095   0.5714286   0.0000000), wk =   0.0317460
        k(   62) = (   0.2380952   0.7142857   0.0000000), wk =   0.0317460
        k(   63) = (   0.9523810   0.8571429   0.0000000), wk =   0.0317460

     Dense  grid:    17673 G-vectors     FFT dimensions: (  18,  18, 135)

     Dynamical RAM for                 wfc:       0.04 MB

     Dynamical RAM for     wfc (w. buffer):       0.04 MB

     Dynamical RAM for           str. fact:       0.03 MB

     Dynamical RAM for           local pot:       0.00 MB

     Dynamical RAM for          nlocal pot:       0.13 MB

     Dynamical RAM for                qrad:       3.45 MB

     Dynamical RAM for          rho,v,vnew:       0.10 MB

     Dynamical RAM for           G-vectors:       0.06 MB

     Dynamical RAM for          h,s,v(r/c):       0.29 MB

     Dynamical RAM for          <psi|beta>:       0.02 MB

     Dynamical RAM for                 psi:       0.15 MB

     Dynamical RAM for                hpsi:       0.15 MB

     Dynamical RAM for      wfcinit/wfcrot:       0.08 MB

     Estimated static dynamical RAM per process >       3.96 MB

     Estimated max dynamical RAM per process >       4.57 MB

     Estimated total dynamical RAM >     575.20 MB

     The potential is recalculated from file :
     ./WS2.save/charge-density

     Starting wfcs are   18 randomized atomic wfcs +    2 random wfcs

     Band Structure Calculation
     Davidson diagonalization with overlap

     Computing kpt #:     1  of     9 on this pool
     total cpu time spent up to now is        0.5 secs

     Computing kpt #:     2  of     9 on this pool
     total cpu time spent up to now is        0.7 secs

     Computing kpt #:     3  of     9 on this pool
     total cpu time spent up to now is        0.8 secs

     Computing kpt #:     4  of     9 on this pool
     total cpu time spent up to now is        0.9 secs

     Computing kpt #:     5  of     9 on this pool
     total cpu time spent up to now is        1.0 secs

     Computing kpt #:     6  of     9 on this pool
     total cpu time spent up to now is        1.1 secs

     Computing kpt #:     7  of     9 on this pool
     total cpu time spent up to now is        1.2 secs

     Computing kpt #:     8  of     9 on this pool
     total cpu time spent up to now is        1.3 secs

     Computing kpt #:     9  of     9 on this pool
     total cpu time spent up to now is        1.5 secs

     ethr =  3.85E-09,  avg # of iterations = 19.2

     total cpu time spent up to now is        1.5 secs

     End of band structure calculation

          k = 0.0000 0.0000 0.0000 (  2245 PWs)   bands (ev):

   -74.1878 -40.3434 -40.1462 -40.1462 -16.1653 -14.6826  -7.8661  -4.3078
    -4.3078  -3.8519  -3.0409  -3.0409  -1.8458   1.3758   1.3758   1.4324
     1.4324   3.5816   3.7358   4.0647

          k = 0.7143-0.2474 0.0000 (  2191 PWs)   bands (ev):

   -74.0920 -40.4311 -40.2861 -40.2497 -14.3497 -13.9344  -7.2730  -6.4038
    -5.8154  -5.1125  -4.0222  -3.4083  -2.3853   0.7016   1.6204   1.9260
     3.1874   5.7183   6.1634   6.2622

          k = 0.4286 0.0825 0.0000 (  2191 PWs)   bands (ev):

   -74.0920 -40.4311 -40.2861 -40.2497 -14.3497 -13.9344  -7.2730  -6.4038
    -5.8154  -5.1125  -4.0222  -3.4083  -2.3853   0.7016   1.6204   1.9260
     3.1874   5.7183   6.1634   6.2622

          k = 0.1429 0.4124 0.0000 (  2191 PWs)   bands (ev):

   -74.0920 -40.4311 -40.2861 -40.2497 -14.3497 -13.9344  -7.2730  -6.4038
    -5.8154  -5.1125  -4.0222  -3.4083  -2.3853   0.7016   1.6204   1.9260
     3.1874   5.7183   6.1634   6.2622

          k = 0.8571 0.1650 0.0000 (  2191 PWs)   bands (ev):

   -74.0920 -40.4311 -40.2861 -40.2497 -14.3497 -13.9344  -7.2730  -6.4038
    -5.8154  -5.1125  -4.0222  -3.4083  -2.3853   0.7016   1.6204   1.9260
     3.1874   5.7183   6.1634   6.2622

          k = 0.5714 0.4949 0.0000 (  2191 PWs)   bands (ev):

   -74.0920 -40.4311 -40.2861 -40.2497 -14.3497 -13.9344  -7.2730  -6.4038
    -5.8154  -5.1125  -4.0222  -3.4083  -2.3853   0.7016   1.6204   1.9260
     3.1874   5.7183   6.1634   6.2622

          k = 0.2857 0.8248 0.0000 (  2191 PWs)   bands (ev):

   -74.0920 -40.4311 -40.2861 -40.2497 -14.3497 -13.9344  -7.2730  -6.4038
    -5.8154  -5.1125  -4.0222  -3.4083  -2.3853   0.7016   1.6204   1.9260
     3.1874   5.7183   6.1634   6.2622

          k = 0.9048-0.4674 0.0000 (  2203 PWs)   bands (ev):

   -74.1097 -40.3336 -40.2001 -40.1588 -15.8880 -14.5566  -7.5620  -4.8971
    -4.4496  -4.0325  -3.5012  -2.8850  -1.9357   0.8980   1.2254   1.2344
     1.8425   3.9764   4.0574   4.4577

          k = 0.6190-0.1375 0.0000 (  2206 PWs)   bands (ev):

   -74.1208 -40.4642 -40.3003 -40.2740 -13.8358 -13.7059  -7.4638  -7.1019
    -5.8349  -5.0387  -4.5845  -3.8414  -1.9603   0.9855   2.0067   2.0913
     3.4289   4.6882   6.9422   7.6120

          k = 0.3333 0.1925 0.0000 (  2186 PWs)   bands (ev):

   -74.0828 -40.4157 -40.2940 -40.2107 -14.6555 -14.0630  -7.2804  -6.1366
    -5.9787  -4.5540  -3.6072  -3.0262  -2.8384   0.9589   1.0464   2.1042
     2.8921   5.3961   5.6700   5.8688

          k = 0.0476 0.5224 0.0000 (  2208 PWs)   bands (ev):

   -74.1263 -40.4930 -40.2792 -40.2352 -14.0526 -13.8279  -7.8915  -6.7714
    -5.9801  -4.9121  -3.8025  -3.0489  -2.4148   1.3075   1.6859   2.4921
     2.9908   4.3317   6.2949   6.3411

          k = 0.7619 0.2749 0.0000 (  2182 PWs)   bands (ev):

   -74.0750 -40.3963 -40.2937 -40.2337 -14.6347 -14.0469  -7.0370  -6.0016
    -5.9048  -5.0930  -3.8927  -3.1951  -2.4592   0.4886   1.4406   1.7053
     3.1224   5.6820   5.7986   6.2910

          k = 0.4762 0.6048 0.0000 (  2204 PWs)   bands (ev):

   -74.1186 -40.4413 -40.3097 -40.2764 -13.9368 -13.7436  -7.2297  -6.9862
    -5.6310  -5.1333  -4.9816  -3.6837  -2.0671   0.8559   1.7930   1.9778
     3.6080   5.3969   6.5052   7.1899

          k = 0.1905 0.9348 0.0000 (  2183 PWs)   bands (ev):

   -74.0761 -40.3235 -40.3097 -40.1967 -15.1893 -14.2769  -6.9470  -5.8957
    -5.3469  -4.5728  -3.5904  -3.0037  -2.4354   0.4527   1.1082   1.4432
     2.7097   4.8834   4.9685   5.3968

          k = 0.8095-0.3574 0.0000 (  2183 PWs)   bands (ev):

   -74.0761 -40.3235 -40.3097 -40.1967 -15.1893 -14.2769  -6.9470  -5.8957
    -5.3469  -4.5728  -3.5904  -3.0037  -2.4354   0.4527   1.1082   1.4432
     2.7097   4.8834   4.9685   5.3968

          k = 0.5238-0.0275 0.0000 (  2204 PWs)   bands (ev):

   -74.1186 -40.4413 -40.3097 -40.2764 -13.9368 -13.7436  -7.2297  -6.9862
    -5.6310  -5.1333  -4.9816  -3.6837  -2.0671   0.8559   1.7930   1.9778
     3.6080   5.3969   6.5052   7.1899

          k = 0.2381 0.3024 0.0000 (  2182 PWs)   bands (ev):

   -74.0750 -40.3963 -40.2937 -40.2337 -14.6347 -14.0469  -7.0370  -6.0016
    -5.9048  -5.0930  -3.8927  -3.1951  -2.4592   0.4886   1.4406   1.7053
     3.1224   5.6820   5.7986   6.2910

          k = 0.9524 0.0550 0.0000 (  2208 PWs)   bands (ev):

   -74.1263 -40.4930 -40.2792 -40.2352 -14.0526 -13.8279  -7.8915  -6.7714
    -5.9801  -4.9121  -3.8025  -3.0489  -2.4148   1.3075   1.6859   2.4921
     2.9908   4.3317   6.2949   6.3411

          k = 0.6667 0.3849 0.0000 (  2186 PWs)   bands (ev):

   -74.0828 -40.4157 -40.2940 -40.2107 -14.6555 -14.0630  -7.2804  -6.1366
    -5.9787  -4.5540  -3.6072  -3.0262  -2.8384   0.9589   1.0464   2.1042
     2.8921   5.3961   5.6700   5.8688

          k = 0.3810 0.7148 0.0000 (  2206 PWs)   bands (ev):

   -74.1208 -40.4642 -40.3003 -40.2740 -13.8358 -13.7059  -7.4638  -7.1019
    -5.8349  -5.0387  -4.5845  -3.8414  -1.9603   0.9855   2.0067   2.0913
     3.4289   4.6882   6.9422   7.6120

          k = 0.0952 1.0447 0.0000 (  2203 PWs)   bands (ev):

   -74.1097 -40.3336 -40.2001 -40.1588 -15.8880 -14.5566  -7.5620  -4.8971
    -4.4496  -4.0325  -3.5012  -2.8850  -1.9357   0.8980   1.2254   1.2344
     1.8425   3.9764   4.0574   4.4577

          k = 0.1429 0.0275 0.0000 (  2203 PWs)   bands (ev):

   -74.1097 -40.3336 -40.2001 -40.1588 -15.8880 -14.5566  -7.5620  -4.8971
    -4.4496  -4.0325  -3.5012  -2.8850  -1.9357   0.8980   1.2254   1.2344
     1.8425   3.9764   4.0574   4.4577

          k = 0.8571-0.2199 0.0000 (  2182 PWs)   bands (ev):

   -74.0750 -40.3963 -40.2937 -40.2337 -14.6347 -14.0469  -7.0370  -6.0016
    -5.9048  -5.0930  -3.8927  -3.1951  -2.4592   0.4886   1.4406   1.7053
     3.1224   5.6820   5.7986   6.2910

          k = 0.5714 0.1100 0.0000 (  2206 PWs)   bands (ev):

   -74.1208 -40.4642 -40.3003 -40.2740 -13.8358 -13.7059  -7.4638  -7.1019
    -5.8349  -5.0387  -4.5845  -3.8414  -1.9603   0.9855   2.0067   2.0913
     3.4289   4.6882   6.9422   7.6120

          k = 0.2857 0.4399 0.0000 (  2204 PWs)   bands (ev):

   -74.1186 -40.4413 -40.3097 -40.2764 -13.9368 -13.7436  -7.2297  -6.9862
    -5.6310  -5.1333  -4.9816  -3.6837  -2.0671   0.8559   1.7930   1.9778
     3.6080   5.3969   6.5052   7.1899

          k = 0.0000 0.7698 0.0000 (  2186 PWs)   bands (ev):

   -74.0828 -40.4157 -40.2940 -40.2107 -14.6555 -14.0630  -7.2804  -6.1366
    -5.9787  -4.5540  -3.6072  -3.0262  -2.8384   0.9589   1.0464   2.1042
     2.8921   5.3961   5.6700   5.8688

          k = 0.7143 0.5224 0.0000 (  2183 PWs)   bands (ev):

   -74.0761 -40.3235 -40.3097 -40.1967 -15.1893 -14.2769  -6.9470  -5.8957
    -5.3469  -4.5728  -3.5904  -3.0037  -2.4354   0.4527   1.1082   1.4432
     2.7097   4.8834   4.9685   5.3968

          k = 0.4286 0.8523 0.0000 (  2208 PWs)   bands (ev):

   -74.1263 -40.4930 -40.2792 -40.2352 -14.0526 -13.8279  -7.8915  -6.7714
    -5.9801  -4.9121  -3.8025  -3.0489  -2.4148   1.3075   1.6859   2.4921
     2.9908   4.3317   6.2949   6.3411

          k = 0.3333-0.1925 0.0000 (  2186 PWs)   bands (ev):

   -74.0828 -40.4157 -40.2940 -40.2107 -14.6555 -14.0630  -7.2804  -6.1366
    -5.9787  -4.5540  -3.6072  -3.0262  -2.8384   0.9589   1.0464   2.1042
     2.8921   5.3961   5.6700   5.8688

          k = 0.0476 0.1375 0.0000 (  2203 PWs)   bands (ev):

   -74.1097 -40.3336 -40.2001 -40.1588 -15.8880 -14.5566  -7.5620  -4.8971
    -4.4496  -4.0325  -3.5012  -2.8850  -1.9357   0.8980   1.2254   1.2344
     1.8425   3.9764   4.0574   4.4577

          k = 0.7619-0.1100 0.0000 (  2204 PWs)   bands (ev):

   -74.1186 -40.4413 -40.3097 -40.2764 -13.9368 -13.7436  -7.2297  -6.9862
    -5.6310  -5.1333  -4.9816  -3.6837  -2.0671   0.8559   1.7930   1.9778
     3.6080   5.3969   6.5052   7.1899

          k = 0.4762 0.2199 0.0000 (  2208 PWs)   bands (ev):

   -74.1263 -40.4930 -40.2792 -40.2352 -14.0526 -13.8279  -7.8915  -6.7714
    -5.9801  -4.9121  -3.8025  -3.0489  -2.4148   1.3075   1.6859   2.4921
     2.9908   4.3317   6.2949   6.3411

          k = 0.1905 0.5499 0.0000 (  2206 PWs)   bands (ev):

   -74.1208 -40.4642 -40.3003 -40.2740 -13.8358 -13.7059  -7.4638  -7.1019
    -5.8349  -5.0387  -4.5845  -3.8414  -1.9603   0.9855   2.0067   2.0913
     3.4289   4.6882   6.9422   7.6120

          k = 0.9048 0.3024 0.0000 (  2183 PWs)   bands (ev):

   -74.0761 -40.3235 -40.3097 -40.1967 -15.1893 -14.2769  -6.9470  -5.8957
    -5.3469  -4.5728  -3.5904  -3.0037  -2.4354   0.4527   1.1082   1.4432
     2.7097   4.8834   4.9685   5.3968

          k = 0.6190 0.6323 0.0000 (  2182 PWs)   bands (ev):

   -74.0750 -40.3963 -40.2937 -40.2337 -14.6347 -14.0469  -7.0370  -6.0016
    -5.9048  -5.0930  -3.8927  -3.1951  -2.4592   0.4886   1.4406   1.7053
     3.1224   5.6820   5.7986   6.2910

          k = 0.2381-0.0825 0.0000 (  2177 PWs)   bands (ev):

   -74.0639 -40.3165 -40.2903 -40.1818 -15.4036 -14.3605  -7.0947  -5.6874
    -5.1636  -4.1086  -3.6107  -3.0714  -2.3145   0.5709   1.0561   1.4225
     2.4351   4.5848   4.6697   5.0842

          k = 0.9524-0.3299 0.0000 (  2177 PWs)   bands (ev):

   -74.0639 -40.3165 -40.2903 -40.1818 -15.4036 -14.3605  -7.0947  -5.6874
    -5.1636  -4.1086  -3.6107  -3.0714  -2.3145   0.5709   1.0561   1.4225
     2.4351   4.5848   4.6697   5.0842

          k = 0.6667-0.0000 0.0000 (  2196 PWs)   bands (ev):

   -74.1040 -40.4113 -40.3801 -40.2696 -13.6832 -13.6056  -7.3730  -6.8199
    -6.0906  -5.4199  -4.8913  -4.0616  -1.5997   0.5117   1.6338   2.4127
     4.0454   5.3438   5.7301   7.8628

          k = 0.3810 0.3299 0.0000 (  2184 PWs)   bands (ev):

   -74.0787 -40.4773 -40.2791 -40.2453 -14.0749 -13.8290  -7.7140  -6.7449
    -5.9098  -4.9775  -3.7206  -3.5350  -2.2969   1.1455   1.7345   2.4184
     2.9679   4.6959   6.4527   6.5687

          k = 0.0952 0.6598 0.0000 (  2184 PWs)   bands (ev):

   -74.0787 -40.4773 -40.2791 -40.2453 -14.0749 -13.8290  -7.7140  -6.7449
    -5.9098  -4.9775  -3.7206  -3.5350  -2.2969   1.1455   1.7345   2.4184
     2.9679   4.6959   6.4527   6.5687

          k = 0.8095 0.4124 0.0000 (  2177 PWs)   bands (ev):

   -74.0639 -40.3165 -40.2903 -40.1818 -15.4036 -14.3605  -7.0947  -5.6874
    -5.1636  -4.1086  -3.6107  -3.0714  -2.3145   0.5709   1.0561   1.4225
     2.4351   4.5848   4.6697   5.0842

          k = 0.5238 0.7423 0.0000 (  2184 PWs)   bands (ev):

   -74.0787 -40.4773 -40.2791 -40.2453 -14.0749 -13.8290  -7.7140  -6.7449
    -5.9098  -4.9775  -3.7206  -3.5350  -2.2969   1.1455   1.7345   2.4184
     2.9679   4.6959   6.4527   6.5687

          k = 0.5714-0.2749 0.0000 (  2208 PWs)   bands (ev):

   -74.1263 -40.4930 -40.2792 -40.2352 -14.0526 -13.8279  -7.8915  -6.7714
    -5.9801  -4.9121  -3.8025  -3.0489  -2.4148   1.3075   1.6859   2.4921
     2.9908   4.3317   6.2949   6.3411

          k = 0.2857 0.0550 0.0000 (  2183 PWs)   bands (ev):

   -74.0761 -40.3235 -40.3097 -40.1967 -15.1893 -14.2769  -6.9470  -5.8957
    -5.3469  -4.5728  -3.5904  -3.0037  -2.4354   0.4527   1.1082   1.4432
     2.7097   4.8834   4.9685   5.3968

          k = 0.0000 0.3849 0.0000 (  2186 PWs)   bands (ev):

   -74.0828 -40.4157 -40.2940 -40.2107 -14.6555 -14.0630  -7.2804  -6.1366
    -5.9787  -4.5540  -3.6072  -3.0262  -2.8384   0.9589   1.0464   2.1042
     2.8921   5.3961   5.6700   5.8688

          k = 0.7143 0.1375 0.0000 (  2204 PWs)   bands (ev):

   -74.1186 -40.4413 -40.3097 -40.2764 -13.9368 -13.7436  -7.2297  -6.9862
    -5.6310  -5.1333  -4.9816  -3.6837  -2.0671   0.8559   1.7930   1.9778
     3.6080   5.3969   6.5052   7.1899

          k = 0.4286 0.4674 0.0000 (  2206 PWs)   bands (ev):

   -74.1208 -40.4642 -40.3003 -40.2740 -13.8358 -13.7059  -7.4638  -7.1019
    -5.8349  -5.0387  -4.5845  -3.8414  -1.9603   0.9855   2.0067   2.0913
     3.4289   4.6882   6.9422   7.6120

          k = 0.1429 0.7973 0.0000 (  2182 PWs)   bands (ev):

   -74.0750 -40.3963 -40.2937 -40.2337 -14.6347 -14.0469  -7.0370  -6.0016
    -5.9048  -5.0930  -3.8927  -3.1951  -2.4592   0.4886   1.4406   1.7053
     3.1224   5.6820   5.7986   6.2910

          k = 0.8571 0.5499 0.0000 (  2203 PWs)   bands (ev):

   -74.1097 -40.3336 -40.2001 -40.1588 -15.8880 -14.5566  -7.5620  -4.8971
    -4.4496  -4.0325  -3.5012  -2.8850  -1.9357   0.8980   1.2254   1.2344
     1.8425   3.9764   4.0574   4.4577

          k = 0.4762-0.1650 0.0000 (  2184 PWs)   bands (ev):

   -74.0787 -40.4773 -40.2791 -40.2453 -14.0749 -13.8290  -7.7140  -6.7449
    -5.9098  -4.9775  -3.7206  -3.5350  -2.2969   1.1455   1.7345   2.4184
     2.9679   4.6959   6.4527   6.5687

          k = 0.1905 0.1650 0.0000 (  2177 PWs)   bands (ev):

   -74.0639 -40.3165 -40.2903 -40.1818 -15.4036 -14.3605  -7.0947  -5.6874
    -5.1636  -4.1086  -3.6107  -3.0714  -2.3145   0.5709   1.0561   1.4225
     2.4351   4.5848   4.6697   5.0842

          k = 0.9048-0.0825 0.0000 (  2184 PWs)   bands (ev):

   -74.0787 -40.4773 -40.2791 -40.2453 -14.0749 -13.8290  -7.7140  -6.7449
    -5.9098  -4.9775  -3.7206  -3.5350  -2.2969   1.1455   1.7345   2.4184
     2.9679   4.6959   6.4527   6.5687

          k = 0.6190 0.2474 0.0000 (  2184 PWs)   bands (ev):

   -74.0787 -40.4773 -40.2791 -40.2453 -14.0749 -13.8290  -7.7140  -6.7449
    -5.9098  -4.9775  -3.7206  -3.5350  -2.2969   1.1455   1.7345   2.4184
     2.9679   4.6959   6.4527   6.5687

          k = 0.3333 0.5774 0.0000 (  2196 PWs)   bands (ev):

   -74.1040 -40.4113 -40.3801 -40.2696 -13.6832 -13.6056  -7.3730  -6.8199
    -6.0906  -5.4199  -4.8913  -4.0616  -1.5997   0.5117   1.6338   2.4127
     4.0454   5.3438   5.7301   7.8628

          k = 0.0476 0.9073 0.0000 (  2177 PWs)   bands (ev):

   -74.0639 -40.3165 -40.2903 -40.1818 -15.4036 -14.3605  -7.0947  -5.6874
    -5.1636  -4.1086  -3.6107  -3.0714  -2.3145   0.5709   1.0561   1.4225
     2.4351   4.5848   4.6697   5.0842

          k = 0.7619 0.6598 0.0000 (  2177 PWs)   bands (ev):

   -74.0639 -40.3165 -40.2903 -40.1818 -15.4036 -14.3605  -7.0947  -5.6874
    -5.1636  -4.1086  -3.6107  -3.0714  -2.3145   0.5709   1.0561   1.4225
     2.4351   4.5848   4.6697   5.0842

          k = 0.6667-0.3849 0.0000 (  2186 PWs)   bands (ev):

   -74.0828 -40.4157 -40.2940 -40.2107 -14.6555 -14.0630  -7.2804  -6.1366
    -5.9787  -4.5540  -3.6072  -3.0262  -2.8384   0.9589   1.0464   2.1042
     2.8921   5.3961   5.6700   5.8688

          k = 0.3810-0.0550 0.0000 (  2182 PWs)   bands (ev):

   -74.0750 -40.3963 -40.2937 -40.2337 -14.6347 -14.0469  -7.0370  -6.0016
    -5.9048  -5.0930  -3.8927  -3.1951  -2.4592   0.4886   1.4406   1.7053
     3.1224   5.6820   5.7986   6.2910

          k = 0.0952 0.2749 0.0000 (  2183 PWs)   bands (ev):

   -74.0761 -40.3235 -40.3097 -40.1967 -15.1893 -14.2769  -6.9470  -5.8957
    -5.3469  -4.5728  -3.5904  -3.0037  -2.4354   0.4527   1.1082   1.4432
     2.7097   4.8834   4.9685   5.3968

          k = 0.8095 0.0275 0.0000 (  2206 PWs)   bands (ev):

   -74.1208 -40.4642 -40.3003 -40.2740 -13.8358 -13.7059  -7.4638  -7.1019
    -5.8349  -5.0387  -4.5845  -3.8414  -1.9603   0.9855   2.0067   2.0913
     3.4289   4.6882   6.9422   7.6120

          k = 0.5238 0.3574 0.0000 (  2208 PWs)   bands (ev):

   -74.1263 -40.4930 -40.2792 -40.2352 -14.0526 -13.8279  -7.8915  -6.7714
    -5.9801  -4.9121  -3.8025  -3.0489  -2.4148   1.3075   1.6859   2.4921
     2.9908   4.3317   6.2949   6.3411

          k = 0.2381 0.6873 0.0000 (  2204 PWs)   bands (ev):

   -74.1186 -40.4413 -40.3097 -40.2764 -13.9368 -13.7436  -7.2297  -6.9862
    -5.6310  -5.1333  -4.9816  -3.6837  -2.0671   0.8559   1.7930   1.9778
     3.6080   5.3969   6.5052   7.1899

          k = 0.9524 0.4399 0.0000 (  2203 PWs)   bands (ev):

   -74.1097 -40.3336 -40.2001 -40.1588 -15.8880 -14.5566  -7.5620  -4.8971
    -4.4496  -4.0325  -3.5012  -2.8850  -1.9357   0.8980   1.2254   1.2344
     1.8425   3.9764   4.0574   4.4577

     Writing all to output data dir ./WS2.save/

     init_run     :      0.21s CPU      0.21s WALL (       1 calls)
     electrons    :      1.63s CPU      1.03s WALL (       1 calls)

     Called by init_run:
     wfcinit      :      0.00s CPU      0.02s WALL (       1 calls)
     wfcinit:atom :      0.00s CPU      0.00s WALL (       9 calls)
     wfcinit:wfcr :      0.05s CPU      0.06s WALL (       9 calls)
     potinit      :      0.03s CPU      0.02s WALL (       1 calls)
     hinit0       :      0.17s CPU      0.17s WALL (       1 calls)

     Called by electrons:
     c_bands      :      1.63s CPU      1.03s WALL (       1 calls)
     v_of_rho     :      0.02s CPU      0.01s WALL (       1 calls)
     v_h          :      0.00s CPU      0.00s WALL (       1 calls)
     v_xc         :      0.01s CPU      0.01s WALL (       1 calls)

     Called by c_bands:
     init_us_2    :      0.00s CPU      0.00s WALL (       9 calls)
     init_us_2:cp :      0.00s CPU      0.00s WALL (       9 calls)
     cegterg      :      1.44s CPU      0.80s WALL (       9 calls)

     Called by sum_band:

     Called by *egterg:
     cdiaghg      :      0.53s CPU      0.26s WALL (     180 calls)
     cegterg:over :      0.09s CPU      0.07s WALL (     171 calls)
     cegterg:upda :      0.05s CPU      0.02s WALL (     171 calls)
     cegterg:last :      0.02s CPU      0.01s WALL (      28 calls)
     h_psi        :      0.77s CPU      0.47s WALL (     189 calls)
     g_psi        :      0.00s CPU      0.00s WALL (     171 calls)

     Called by h_psi:
     h_psi:calbec :      0.07s CPU      0.05s WALL (     189 calls)
     vloc_psi     :      0.64s CPU      0.39s WALL (     189 calls)
     add_vuspsi   :      0.06s CPU      0.03s WALL (     189 calls)

     General routines
     calbec       :      0.07s CPU      0.05s WALL (     189 calls)
     fft          :      0.16s CPU      0.16s WALL (      11 calls)
     fftw         :      0.62s CPU      0.37s WALL (    3764 calls)
     davcio       :      0.00s CPU      0.00s WALL (      18 calls)

     Parallel routines

     PWSCF        :      2.10s CPU      1.59s WALL


   This run was terminated on:   0: 3: 6  26Apr2023            

=------------------------------------------------------------------------------=
   JOB DONE.
=------------------------------------------------------------------------------=
Note: The following floating-point exceptions are signalling: IEEE_DENORMAL
Note: The following floating-point exceptions are signalling: IEEE_DENORMAL
Note: The following floating-point exceptions are signalling: IEEE_DENORMAL
Note: The following floating-point exceptions are signalling: IEEE_DENORMAL
Note: The following floating-point exceptions are signalling: IEEE_DENORMAL
Note: The following floating-point exceptions are signalling: IEEE_DENORMAL
Note: The following floating-point exceptions are signalling: IEEE_DENORMAL
Note: The following floating-point exceptions are signalling: IEEE_DENORMAL
Note: The following floating-point exceptions are signalling: IEEE_DENORMAL
Note: The following floating-point exceptions are signalling: IEEE_DENORMAL
Note: The following floating-point exceptions are signalling: IEEE_DENORMAL
Note: The following floating-point exceptions are signalling: IEEE_DENORMAL
Note: The following floating-point exceptions are signalling: IEEE_DENORMAL
Note: The following floating-point exceptions are signalling: IEEE_DENORMAL
Note: The following floating-point exceptions are signalling: IEEE_DENORMAL
Note: The following floating-point exceptions are signalling: IEEE_DENORMAL
Note: The following floating-point exceptions are signalling: IEEE_DENORMAL
Note: The following floating-point exceptions are signalling: IEEE_DENORMAL
Note: The following floating-point exceptions are signalling: IEEE_DENORMAL
Note: The following floating-point exceptions are signalling: IEEE_DENORMAL
Note: The following floating-point exceptions are signalling: IEEE_DENORMAL
Note: The following floating-point exceptions are signalling: IEEE_DENORMAL
Note: The following floating-point exceptions are signalling: IEEE_DENORMAL
Note: The following floating-point exceptions are signalling: IEEE_DENORMAL
Note: The following floating-point exceptions are signalling: IEEE_DENORMAL
Note: The following floating-point exceptions are signalling: IEEE_DENORMAL
Note: The following floating-point exceptions are signalling: IEEE_DENORMAL
Note: The following floating-point exceptions are signalling: IEEE_DENORMAL
Note: The following floating-point exceptions are signalling: IEEE_DENORMAL
Note: The following floating-point exceptions are signalling: IEEE_DENORMAL
Note: The following floating-point exceptions are signalling: IEEE_DENORMAL
Note: The following floating-point exceptions are signalling: IEEE_DENORMAL
Note: The following floating-point exceptions are signalling: IEEE_DENORMAL
Note: The following floating-point exceptions are signalling: IEEE_DENORMAL
Note: The following floating-point exceptions are signalling: IEEE_DENORMAL
Note: The following floating-point exceptions are signalling: IEEE_DENORMAL
Note: The following floating-point exceptions are signalling: IEEE_DENORMAL
Note: The following floating-point exceptions are signalling: IEEE_DENORMAL
Note: The following floating-point exceptions are signalling: IEEE_DENORMAL
Note: The following floating-point exceptions are signalling: IEEE_DENORMAL
Note: The following floating-point exceptions are signalling: IEEE_DENORMAL
Note: The following floating-point exceptions are signalling: IEEE_DENORMAL
Note: The following floating-point exceptions are signalling: IEEE_DENORMAL
Note: The following floating-point exceptions are signalling: IEEE_DENORMAL
Note: The following floating-point exceptions are signalling: IEEE_DENORMAL
Note: The following floating-point exceptions are signalling: IEEE_DENORMAL
Note: The following floating-point exceptions are signalling: IEEE_DENORMAL
Note: The following floating-point exceptions are signalling: IEEE_DENORMAL
Note: The following floating-point exceptions are signalling: IEEE_DENORMAL
Note: The following floating-point exceptions are signalling: IEEE_DENORMAL
Note: The following floating-point exceptions are signalling: IEEE_DENORMAL
Note: The following floating-point exceptions are signalling: IEEE_DENORMAL
Note: The following floating-point exceptions are signalling: IEEE_DENORMAL
Note: The following floating-point exceptions are signalling: IEEE_DENORMAL
Note: The following floating-point exceptions are signalling: IEEE_DENORMAL
Note: The following floating-point exceptions are signalling: IEEE_DENORMAL
Note: The following floating-point exceptions are signalling: IEEE_DENORMAL
Note: The following floating-point exceptions are signalling: IEEE_DENORMAL
Note: The following floating-point exceptions are signalling: IEEE_DENORMAL
Note: The following floating-point exceptions are signalling: IEEE_DENORMAL
Note: The following floating-point exceptions are signalling: IEEE_DENORMAL
Note: The following floating-point exceptions are signalling: IEEE_DENORMAL
Note: The following floating-point exceptions are signalling: IEEE_DENORMAL
Note: The following floating-point exceptions are signalling: IEEE_DENORMAL
Note: The following floating-point exceptions are signalling: IEEE_DENORMAL
Note: The following floating-point exceptions are signalling: IEEE_DENORMAL
Note: The following floating-point exceptions are signalling: IEEE_DENORMAL
Note: The following floating-point exceptions are signalling: IEEE_DENORMAL
Note: The following floating-point exceptions are signalling: IEEE_DENORMAL
Note: The following floating-point exceptions are signalling: IEEE_DENORMAL
Note: The following floating-point exceptions are signalling: IEEE_DENORMAL
Note: The following floating-point exceptions are signalling: IEEE_DENORMAL
Note: The following floating-point exceptions are signalling: IEEE_DENORMAL
Note: The following floating-point exceptions are signalling: IEEE_DENORMAL
Note: The following floating-point exceptions are signalling: IEEE_DENORMAL
Note: The following floating-point exceptions are signalling: IEEE_DENORMAL
Note: The following floating-point exceptions are signalling: IEEE_DENORMAL
Note: The following floating-point exceptions are signalling: IEEE_DENORMAL
Note: The following floating-point exceptions are signalling: IEEE_DENORMAL
Note: The following floating-point exceptions are signalling: IEEE_DENORMAL
Note: The following floating-point exceptions are signalling: IEEE_DENORMAL
Note: The following floating-point exceptions are signalling: IEEE_DENORMAL
Note: The following floating-point exceptions are signalling: IEEE_DENORMAL
Note: The following floating-point exceptions are signalling: IEEE_DENORMAL
Note: The following floating-point exceptions are signalling: IEEE_DENORMAL
Note: The following floating-point exceptions are signalling: IEEE_DENORMAL
Note: The following floating-point exceptions are signalling: IEEE_DENORMAL
Note: The following floating-point exceptions are signalling: IEEE_DENORMAL
Note: The following floating-point exceptions are signalling: IEEE_DENORMAL
Note: The following floating-point exceptions are signalling: IEEE_DENORMAL
Note: The following floating-point exceptions are signalling: IEEE_DENORMAL
Note: The following floating-point exceptions are signalling: IEEE_DENORMAL
Note: The following floating-point exceptions are signalling: IEEE_DENORMAL
Note: The following floating-point exceptions are signalling: IEEE_DENORMAL
Note: The following floating-point exceptions are signalling: IEEE_DENORMAL
Note: The following floating-point exceptions are signalling: IEEE_DENORMAL
Note: The following floating-point exceptions are signalling: IEEE_DENORMAL
Note: The following floating-point exceptions are signalling: IEEE_DENORMAL
Note: The following floating-point exceptions are signalling: IEEE_DENORMAL
Note: The following floating-point exceptions are signalling: IEEE_DENORMAL
Note: The following floating-point exceptions are signalling: IEEE_DENORMAL
Note: The following floating-point exceptions are signalling: IEEE_DENORMAL
Note: The following floating-point exceptions are signalling: IEEE_DENORMAL
Note: The following floating-point exceptions are signalling: IEEE_DENORMAL
Note: The following floating-point exceptions are signalling: IEEE_DENORMAL
Note: The following floating-point exceptions are signalling: IEEE_DENORMAL
Note: The following floating-point exceptions are signalling: IEEE_DENORMAL
Note: The following floating-point exceptions are signalling: IEEE_DENORMAL
Note: The following floating-point exceptions are signalling: IEEE_DENORMAL
Note: The following floating-point exceptions are signalling: IEEE_DENORMAL
Note: The following floating-point exceptions are signalling: IEEE_DENORMAL
Note: The following floating-point exceptions are signalling: IEEE_DENORMAL
Note: The following floating-point exceptions are signalling: IEEE_DENORMAL
Note: The following floating-point exceptions are signalling: IEEE_DENORMAL
Note: The following floating-point exceptions are signalling: IEEE_DENORMAL
Note: The following floating-point exceptions are signalling: IEEE_DENORMAL
Note: The following floating-point exceptions are signalling: IEEE_DENORMAL
Note: The following floating-point exceptions are signalling: IEEE_DENORMAL
Note: The following floating-point exceptions are signalling: IEEE_DENORMAL
Note: The following floating-point exceptions are signalling: IEEE_DENORMAL
Note: The following floating-point exceptions are signalling: IEEE_DENORMAL
Note: The following floating-point exceptions are signalling: IEEE_DENORMAL
Note: The following floating-point exceptions are signalling: IEEE_DENORMAL
Note: The following floating-point exceptions are signalling: IEEE_DENORMAL
Note: The following floating-point exceptions are signalling: IEEE_DENORMAL
Note: The following floating-point exceptions are signalling: IEEE_DENORMAL
