
     Program PWSCF v.7.1 starts on 26Apr2023 at  0: 1:45 

     This program is part of the open-source Quantum ESPRESSO suite
     for quantum simulation of materials; please cite
         "P. Giannozzi et al., J. Phys.:Condens. Matter 21 395502 (2009);
         "P. Giannozzi et al., J. Phys.:Condens. Matter 29 465901 (2017);
         "P. Giannozzi et al., J. Chem. Phys. 152 154105 (2020);
          URL http://www.quantum-espresso.org", 
     in publications or presentations arising from this work. More details at
     http://www.quantum-espresso.org/quote

     Parallel version (MPI & OpenMP), running on     252 processor cores
     Number of MPI processes:               126
     Threads/MPI process:                     2

     MPI processes distributed on     1 nodes
     484198 MiB available memory on the printing compute node when the environment starts

     Reading input from scf.in

     Current dimensions of program PWSCF are:
     Max number of different atomic species (ntypx) = 10
     Max number of k-points (npk) =  40000
     Max angular momentum in pseudopotentials (lmaxx) =  4

     K-points division:     npool     =       7
     R & G space division:  proc/nbgrp/npool/nimage =      18
     Subspace diagonalization in iterative solution of the eigenvalue problem:
     a serial algorithm will be used


     Parallelization info
     --------------------
     sticks:   dense  smooth     PW     G-vecs:    dense   smooth      PW
     Min          11      11      4                  973      973     198
     Max          12      12      5                  998      998     232
     Sum         199     199     73                17673    17673    3753

     Using Slab Decomposition



     bravais-lattice index     =            0
     lattice parameter (alat)  =       5.9526  a.u.
     unit-cell volume          =    1449.7341 (a.u.)^3
     number of atoms/cell      =            3
     number of atomic types    =            2
     number of electrons       =        26.00
     number of Kohn-Sham states=           13
     kinetic-energy cutoff     =      20.0000  Ry
     charge density cutoff     =      80.0000  Ry
     scf convergence threshold =      1.0E-06
     mixing beta               =       0.3000
     number of iterations used =            8  plain     mixing
     Exchange-correlation= PBE
                           (   1   4   3   4   0   0   0)

     celldm(1)=   5.952637  celldm(2)=   0.000000  celldm(3)=   0.000000
     celldm(4)=   0.000000  celldm(5)=   0.000000  celldm(6)=   0.000000

     crystal axes: (cart. coord. in units of alat)
               a(1) = (   1.000000   0.000000   0.000000 )  
               a(2) = (   0.500000   0.866025   0.000000 )  
               a(3) = (   0.000000   0.000000   7.936508 )  

     reciprocal axes: (cart. coord. in units 2 pi/alat)
               b(1) = (  1.000000 -0.577350  0.000000 )  
               b(2) = (  0.000000  1.154701  0.000000 )  
               b(3) = (  0.000000  0.000000  0.126000 )  


     PseudoPot. # 1 for W  read from file:
     /global/u2/w/wkim94/pseudo/pseudodojo/nc-sr-04_pbe_standard_upf/W.upf
     MD5 check sum: cb94e439a9e4ea809831d6e90c63864e
     Pseudo is Norm-conserving + core correction, Zval = 14.0
     Generated using ONCVPSP code by D. R. Hamann
     Using radial grid of 1396 points,  8 beta functions with: 
                l(1) =   0
                l(2) =   0
                l(3) =   1
                l(4) =   1
                l(5) =   2
                l(6) =   2
                l(7) =   3
                l(8) =   3

     PseudoPot. # 2 for S  read from file:
     /global/u2/w/wkim94/pseudo/pseudodojo/nc-sr-04_pbe_standard_upf/S.upf
     MD5 check sum: 6027e7704d67ae28863b2247926ce6f3
     Pseudo is Norm-conserving + core correction, Zval =  6.0
     Generated using ONCVPSP code by D. R. Hamann
     Using radial grid of 1146 points,  6 beta functions with: 
                l(1) =   0
                l(2) =   0
                l(3) =   1
                l(4) =   1
                l(5) =   2
                l(6) =   2

     atomic species   valence    mass     pseudopotential
        W             14.00   183.84000     W ( 1.00)
        S              6.00    78.96000     S ( 1.00)

     No symmetry found


                                    s                        frac. trans.

      isym =  1     identity                                     

 cryst.   s( 1) = (     1          0          0      )
                  (     0          1          0      )
                  (     0          0          1      )

 cart.    s( 1) = (  1.0000000  0.0000000  0.0000000 )
                  (  0.0000000  1.0000000  0.0000000 )
                  (  0.0000000  0.0000000  1.0000000 )


   Cartesian axes

     site n.     atom                  positions (alat units)
         1           W   tau(   1) = (   0.5000000   0.2886751   3.9682540  )
         2           S   tau(   2) = (   1.0000000   0.5773503   3.4603175  )
         3           S   tau(   3) = (   1.0000000   0.5773503   4.4761905  )

   Crystallographic axes

     site n.     atom                  positions (cryst. coord.)
         1           W   tau(   1) = (  0.3333333  0.3333333  0.5000000  )
         2           S   tau(   2) = (  0.6666667  0.6666667  0.4360000  )
         3           S   tau(   3) = (  0.6666667  0.6666667  0.5640000  )

     number of k points=    36
                       cart. coord. in units 2pi/alat
        k(    1) = (   0.0000000   0.0000000   0.0000000), wk =   0.0555556
        k(    2) = (   0.0000000   0.1924501   0.0000000), wk =   0.0555556
        k(    3) = (   0.0000000   0.3849002   0.0000000), wk =   0.0555556
        k(    4) = (   0.0000000  -0.5773503   0.0000000), wk =   0.0555556
        k(    5) = (   0.0000000  -0.3849002   0.0000000), wk =   0.0555556
        k(    6) = (   0.0000000  -0.1924501   0.0000000), wk =   0.0555556
        k(    7) = (   0.1666667  -0.0962250   0.0000000), wk =   0.0555556
        k(    8) = (   0.1666667   0.0962250   0.0000000), wk =   0.0555556
        k(    9) = (   0.1666667   0.2886751   0.0000000), wk =   0.0555556
        k(   10) = (   0.1666667  -0.6735753   0.0000000), wk =   0.0555556
        k(   11) = (   0.1666667  -0.4811252   0.0000000), wk =   0.0555556
        k(   12) = (   0.1666667  -0.2886751   0.0000000), wk =   0.0555556
        k(   13) = (   0.3333333  -0.1924501   0.0000000), wk =   0.0555556
        k(   14) = (   0.3333333   0.0000000   0.0000000), wk =   0.0555556
        k(   15) = (   0.3333333   0.1924501   0.0000000), wk =   0.0555556
        k(   16) = (   0.3333333  -0.7698004   0.0000000), wk =   0.0555556
        k(   17) = (   0.3333333  -0.5773503   0.0000000), wk =   0.0555556
        k(   18) = (   0.3333333  -0.3849002   0.0000000), wk =   0.0555556
        k(   19) = (  -0.5000000   0.2886751   0.0000000), wk =   0.0555556
        k(   20) = (  -0.5000000   0.4811252   0.0000000), wk =   0.0555556
        k(   21) = (  -0.5000000   0.6735753   0.0000000), wk =   0.0555556
        k(   22) = (  -0.5000000  -0.2886751   0.0000000), wk =   0.0555556
        k(   23) = (  -0.5000000  -0.0962250   0.0000000), wk =   0.0555556
        k(   24) = (  -0.5000000   0.0962250   0.0000000), wk =   0.0555556
        k(   25) = (  -0.3333333   0.1924501   0.0000000), wk =   0.0555556
        k(   26) = (  -0.3333333   0.3849002   0.0000000), wk =   0.0555556
        k(   27) = (  -0.3333333   0.5773503   0.0000000), wk =   0.0555556
        k(   28) = (  -0.3333333  -0.3849002   0.0000000), wk =   0.0555556
        k(   29) = (  -0.3333333  -0.1924501   0.0000000), wk =   0.0555556
        k(   30) = (  -0.3333333   0.0000000   0.0000000), wk =   0.0555556
        k(   31) = (  -0.1666667   0.0962250   0.0000000), wk =   0.0555556
        k(   32) = (  -0.1666667   0.2886751   0.0000000), wk =   0.0555556
        k(   33) = (  -0.1666667   0.4811252   0.0000000), wk =   0.0555556
        k(   34) = (  -0.1666667  -0.4811252   0.0000000), wk =   0.0555556
        k(   35) = (  -0.1666667  -0.2886751   0.0000000), wk =   0.0555556
        k(   36) = (  -0.1666667  -0.0962250   0.0000000), wk =   0.0555556

                       cryst. coord.
        k(    1) = (   0.0000000   0.0000000   0.0000000), wk =   0.0555556
        k(    2) = (   0.0000000   0.1666667   0.0000000), wk =   0.0555556
        k(    3) = (   0.0000000   0.3333333   0.0000000), wk =   0.0555556
        k(    4) = (   0.0000000  -0.5000000   0.0000000), wk =   0.0555556
        k(    5) = (   0.0000000  -0.3333333   0.0000000), wk =   0.0555556
        k(    6) = (   0.0000000  -0.1666667   0.0000000), wk =   0.0555556
        k(    7) = (   0.1666667   0.0000000   0.0000000), wk =   0.0555556
        k(    8) = (   0.1666667   0.1666667   0.0000000), wk =   0.0555556
        k(    9) = (   0.1666667   0.3333333   0.0000000), wk =   0.0555556
        k(   10) = (   0.1666667  -0.5000000   0.0000000), wk =   0.0555556
        k(   11) = (   0.1666667  -0.3333333   0.0000000), wk =   0.0555556
        k(   12) = (   0.1666667  -0.1666667   0.0000000), wk =   0.0555556
        k(   13) = (   0.3333333   0.0000000   0.0000000), wk =   0.0555556
        k(   14) = (   0.3333333   0.1666667   0.0000000), wk =   0.0555556
        k(   15) = (   0.3333333   0.3333333   0.0000000), wk =   0.0555556
        k(   16) = (   0.3333333  -0.5000000   0.0000000), wk =   0.0555556
        k(   17) = (   0.3333333  -0.3333333   0.0000000), wk =   0.0555556
        k(   18) = (   0.3333333  -0.1666667   0.0000000), wk =   0.0555556
        k(   19) = (  -0.5000000   0.0000000   0.0000000), wk =   0.0555556
        k(   20) = (  -0.5000000   0.1666667   0.0000000), wk =   0.0555556
        k(   21) = (  -0.5000000   0.3333333   0.0000000), wk =   0.0555556
        k(   22) = (  -0.5000000  -0.5000000   0.0000000), wk =   0.0555556
        k(   23) = (  -0.5000000  -0.3333333   0.0000000), wk =   0.0555556
        k(   24) = (  -0.5000000  -0.1666667   0.0000000), wk =   0.0555556
        k(   25) = (  -0.3333333  -0.0000000   0.0000000), wk =   0.0555556
        k(   26) = (  -0.3333333   0.1666667   0.0000000), wk =   0.0555556
        k(   27) = (  -0.3333333   0.3333333   0.0000000), wk =   0.0555556
        k(   28) = (  -0.3333333  -0.5000000   0.0000000), wk =   0.0555556
        k(   29) = (  -0.3333333  -0.3333333   0.0000000), wk =   0.0555556
        k(   30) = (  -0.3333333  -0.1666667   0.0000000), wk =   0.0555556
        k(   31) = (  -0.1666667   0.0000000   0.0000000), wk =   0.0555556
        k(   32) = (  -0.1666667   0.1666667   0.0000000), wk =   0.0555556
        k(   33) = (  -0.1666667   0.3333333   0.0000000), wk =   0.0555556
        k(   34) = (  -0.1666667  -0.5000000   0.0000000), wk =   0.0555556
        k(   35) = (  -0.1666667  -0.3333333   0.0000000), wk =   0.0555556
        k(   36) = (  -0.1666667  -0.1666667   0.0000000), wk =   0.0555556

     Dense  grid:    17673 G-vectors     FFT dimensions: (  18,  18, 135)

     Dynamical RAM for                 wfc:       0.02 MB

     Dynamical RAM for     wfc (w. buffer):       0.17 MB

     Dynamical RAM for           str. fact:       0.03 MB

     Dynamical RAM for           local pot:       0.00 MB

     Dynamical RAM for          nlocal pot:       0.13 MB

     Dynamical RAM for                qrad:       3.45 MB

     Dynamical RAM for          rho,v,vnew:       0.10 MB

     Dynamical RAM for               rhoin:       0.03 MB

     Dynamical RAM for            rho*nmix:       0.24 MB

     Dynamical RAM for           G-vectors:       0.06 MB

     Dynamical RAM for          h,s,v(r/c):       0.12 MB

     Dynamical RAM for          <psi|beta>:       0.01 MB

     Dynamical RAM for                 psi:       0.10 MB

     Dynamical RAM for                hpsi:       0.10 MB

     Dynamical RAM for      wfcinit/wfcrot:       0.07 MB

     Estimated static dynamical RAM per process >       4.12 MB

     Estimated max dynamical RAM per process >       4.69 MB

     Estimated total dynamical RAM >     565.10 MB

     Initial potential from superposition of free atoms

     starting charge      25.9994, renormalised to      26.0000

     negative rho (up, down):  3.015E-02 0.000E+00
     Starting wfcs are   18 randomized atomic wfcs

     total cpu time spent up to now is        0.5 secs

     Self-consistent Calculation

     iteration #  1     ecut=    20.00 Ry     beta= 0.30
     Davidson diagonalization with overlap

---- Real-time Memory Report at c_bands before calling an iterative solver
            51 MiB given to the printing process from OS
             0 MiB allocation reported by mallinfo(arena+hblkhd)
        482934 MiB available memory on the node where the printing process lives
------------------
     ethr =  1.00E-02,  avg # of iterations =  2.1

     Threshold (ethr) on eigenvalues was too large:
     Diagonalizing with lowered threshold

     Davidson diagonalization with overlap

---- Real-time Memory Report at c_bands before calling an iterative solver
            52 MiB given to the printing process from OS
             0 MiB allocation reported by mallinfo(arena+hblkhd)
        482895 MiB available memory on the node where the printing process lives
------------------
     ethr =  6.21E-04,  avg # of iterations =  1.4

     negative rho (up, down):  2.067E-02 0.000E+00

     total cpu time spent up to now is        0.7 secs

     total energy              =    -195.29127416 Ry
     estimated scf accuracy    <       0.16495475 Ry

     iteration #  2     ecut=    20.00 Ry     beta= 0.30
     Davidson diagonalization with overlap

---- Real-time Memory Report at c_bands before calling an iterative solver
            53 MiB given to the printing process from OS
             0 MiB allocation reported by mallinfo(arena+hblkhd)
        482881 MiB available memory on the node where the printing process lives
------------------
     ethr =  6.34E-04,  avg # of iterations =  2.5

     negative rho (up, down):  1.475E-02 0.000E+00

     total cpu time spent up to now is        0.8 secs

     total energy              =    -195.29967663 Ry
     estimated scf accuracy    <       0.05029265 Ry

     iteration #  3     ecut=    20.00 Ry     beta= 0.30
     Davidson diagonalization with overlap

---- Real-time Memory Report at c_bands before calling an iterative solver
            53 MiB given to the printing process from OS
             0 MiB allocation reported by mallinfo(arena+hblkhd)
        482875 MiB available memory on the node where the printing process lives
------------------
     ethr =  1.93E-04,  avg # of iterations =  2.4

     negative rho (up, down):  7.155E-03 0.000E+00

     total cpu time spent up to now is        0.9 secs

     total energy              =    -195.30368091 Ry
     estimated scf accuracy    <       0.01249968 Ry

     iteration #  4     ecut=    20.00 Ry     beta= 0.30
     Davidson diagonalization with overlap

---- Real-time Memory Report at c_bands before calling an iterative solver
            53 MiB given to the printing process from OS
             0 MiB allocation reported by mallinfo(arena+hblkhd)
        482870 MiB available memory on the node where the printing process lives
------------------
     ethr =  4.81E-05,  avg # of iterations =  2.0

     negative rho (up, down):  4.522E-04 0.000E+00

     total cpu time spent up to now is        0.9 secs

     total energy              =    -195.30416446 Ry
     estimated scf accuracy    <       0.00283720 Ry

     iteration #  5     ecut=    20.00 Ry     beta= 0.30
     Davidson diagonalization with overlap

---- Real-time Memory Report at c_bands before calling an iterative solver
            53 MiB given to the printing process from OS
             0 MiB allocation reported by mallinfo(arena+hblkhd)
        482865 MiB available memory on the node where the printing process lives
------------------
     ethr =  1.09E-05,  avg # of iterations =  3.5

     negative rho (up, down):  2.391E-04 0.000E+00

     total cpu time spent up to now is        1.1 secs

     total energy              =    -195.30399457 Ry
     estimated scf accuracy    <       0.00367506 Ry

     iteration #  6     ecut=    20.00 Ry     beta= 0.30
     Davidson diagonalization with overlap

---- Real-time Memory Report at c_bands before calling an iterative solver
            54 MiB given to the printing process from OS
             0 MiB allocation reported by mallinfo(arena+hblkhd)
        482852 MiB available memory on the node where the printing process lives
------------------
     ethr =  1.09E-05,  avg # of iterations =  3.0

     negative rho (up, down):  7.740E-05 0.000E+00

     total cpu time spent up to now is        1.2 secs

     total energy              =    -195.30483485 Ry
     estimated scf accuracy    <       0.00032435 Ry

     iteration #  7     ecut=    20.00 Ry     beta= 0.30
     Davidson diagonalization with overlap

---- Real-time Memory Report at c_bands before calling an iterative solver
            54 MiB given to the printing process from OS
             0 MiB allocation reported by mallinfo(arena+hblkhd)
        482847 MiB available memory on the node where the printing process lives
------------------
     ethr =  1.25E-06,  avg # of iterations =  1.5

     negative rho (up, down):  3.821E-06 0.000E+00

     total cpu time spent up to now is        1.3 secs

     total energy              =    -195.30476125 Ry
     estimated scf accuracy    <       0.00030390 Ry

     iteration #  8     ecut=    20.00 Ry     beta= 0.30
     Davidson diagonalization with overlap

---- Real-time Memory Report at c_bands before calling an iterative solver
            54 MiB given to the printing process from OS
             0 MiB allocation reported by mallinfo(arena+hblkhd)
        482844 MiB available memory on the node where the printing process lives
------------------
     ethr =  1.17E-06,  avg # of iterations =  2.5

     negative rho (up, down):  7.254E-07 0.000E+00

     total cpu time spent up to now is        1.3 secs

     total energy              =    -195.30478587 Ry
     estimated scf accuracy    <       0.00003231 Ry

     iteration #  9     ecut=    20.00 Ry     beta= 0.30
     Davidson diagonalization with overlap

---- Real-time Memory Report at c_bands before calling an iterative solver
            54 MiB given to the printing process from OS
             0 MiB allocation reported by mallinfo(arena+hblkhd)
        482835 MiB available memory on the node where the printing process lives
------------------
     ethr =  1.24E-07,  avg # of iterations =  3.3

     total cpu time spent up to now is        1.5 secs

     total energy              =    -195.30479602 Ry
     estimated scf accuracy    <       0.00001327 Ry

     iteration # 10     ecut=    20.00 Ry     beta= 0.30
     Davidson diagonalization with overlap

---- Real-time Memory Report at c_bands before calling an iterative solver
            54 MiB given to the printing process from OS
             0 MiB allocation reported by mallinfo(arena+hblkhd)
        482827 MiB available memory on the node where the printing process lives
------------------
     ethr =  5.11E-08,  avg # of iterations =  1.0

     total cpu time spent up to now is        1.5 secs

     total energy              =    -195.30479489 Ry
     estimated scf accuracy    <       0.00000713 Ry

     iteration # 11     ecut=    20.00 Ry     beta= 0.30
     Davidson diagonalization with overlap

---- Real-time Memory Report at c_bands before calling an iterative solver
            54 MiB given to the printing process from OS
             0 MiB allocation reported by mallinfo(arena+hblkhd)
        482822 MiB available memory on the node where the printing process lives
------------------
     ethr =  2.74E-08,  avg # of iterations =  3.0

     total cpu time spent up to now is        1.6 secs

     total energy              =    -195.30479600 Ry
     estimated scf accuracy    <       0.00000103 Ry

     iteration # 12     ecut=    20.00 Ry     beta= 0.30
     Davidson diagonalization with overlap

---- Real-time Memory Report at c_bands before calling an iterative solver
            54 MiB given to the printing process from OS
             0 MiB allocation reported by mallinfo(arena+hblkhd)
        482816 MiB available memory on the node where the printing process lives
------------------
     ethr =  3.95E-09,  avg # of iterations =  2.0

     total cpu time spent up to now is        1.7 secs

     End of self-consistent calculation

          k = 0.0000 0.0000 0.0000 (  2245 PWs)   bands (ev):

   -74.1907 -40.3465 -40.1491 -40.1491 -16.1663 -14.6832  -7.8673  -4.3096
    -4.3096  -3.8524  -3.0425  -3.0425  -1.8473

     occupation numbers 
     1.0000   1.0000   1.0000   1.0000   1.0000   1.0000   1.0000   1.0000
     1.0000   1.0000   1.0000   1.0000   1.0000

          k = 0.0000 0.1925 0.0000 (  2193 PWs)   bands (ev):

   -74.0950 -40.3296 -40.2407 -40.1698 -15.7005 -14.4797  -7.3613  -5.2592
    -4.7791  -3.8476  -3.6655  -3.0158  -2.0747

     occupation numbers 
     1.0000   1.0000   1.0000   1.0000   1.0000   1.0000   1.0000   1.0000
     1.0000   1.0000   1.0000   1.0000   1.0000

          k = 0.0000 0.3849 0.0000 (  2186 PWs)   bands (ev):

   -74.0858 -40.4185 -40.2971 -40.2135 -14.6564 -14.0638  -7.2817  -6.1376
    -5.9797  -4.5556  -3.6076  -3.0274  -2.8402

     occupation numbers 
     1.0000   1.0000   1.0000   1.0000   1.0000   1.0000   1.0000   1.0000
     1.0000   1.0000   1.0000   1.0000   1.0000

          k = 0.0000-0.5774 0.0000 (  2208 PWs)   bands (ev):

   -74.1296 -40.5057 -40.2812 -40.2351 -14.0016 -13.8133  -7.9989  -6.8143
    -6.0152  -4.9045  -3.8363  -2.7160  -2.5564

     occupation numbers 
     1.0000   1.0000   1.0000   1.0000   1.0000   1.0000   1.0000   1.0000
     1.0000   1.0000   1.0000   1.0000   1.0000

          k = 0.0000-0.3849 0.0000 (  2186 PWs)   bands (ev):

   -74.0858 -40.4185 -40.2971 -40.2135 -14.6564 -14.0638  -7.2817  -6.1376
    -5.9797  -4.5556  -3.6076  -3.0274  -2.8402

     occupation numbers 
     1.0000   1.0000   1.0000   1.0000   1.0000   1.0000   1.0000   1.0000
     1.0000   1.0000   1.0000   1.0000   1.0000

          k = 0.0000-0.1925 0.0000 (  2193 PWs)   bands (ev):

   -74.0950 -40.3296 -40.2407 -40.1698 -15.7005 -14.4797  -7.3613  -5.2592
    -4.7791  -3.8476  -3.6655  -3.0158  -2.0747

     occupation numbers 
     1.0000   1.0000   1.0000   1.0000   1.0000   1.0000   1.0000   1.0000
     1.0000   1.0000   1.0000   1.0000   1.0000

          k = 0.1667-0.0962 0.0000 (  2193 PWs)   bands (ev):

   -74.0950 -40.3296 -40.2407 -40.1698 -15.7005 -14.4797  -7.3613  -5.2592
    -4.7791  -3.8476  -3.6655  -3.0158  -2.0747

     occupation numbers 
     1.0000   1.0000   1.0000   1.0000   1.0000   1.0000   1.0000   1.0000
     1.0000   1.0000   1.0000   1.0000   1.0000

          k = 0.1667 0.0962 0.0000 (  2193 PWs)   bands (ev):

   -74.0950 -40.3296 -40.2407 -40.1698 -15.7005 -14.4797  -7.3613  -5.2592
    -4.7791  -3.8476  -3.6655  -3.0158  -2.0747

     occupation numbers 
     1.0000   1.0000   1.0000   1.0000   1.0000   1.0000   1.0000   1.0000
     1.0000   1.0000   1.0000   1.0000   1.0000

          k = 0.1667 0.2887 0.0000 (  2186 PWs)   bands (ev):

   -74.0853 -40.3584 -40.3055 -40.2192 -14.9379 -14.1769  -6.8686  -5.9844
    -5.5352  -5.0329  -3.7566  -2.9885  -2.4564

     occupation numbers 
     1.0000   1.0000   1.0000   1.0000   1.0000   1.0000   1.0000   1.0000
     1.0000   1.0000   1.0000   1.0000   1.0000

          k = 0.1667-0.6736 0.0000 (  2187 PWs)   bands (ev):

   -74.0867 -40.4608 -40.2805 -40.2793 -14.0160 -13.7897  -7.4592  -6.8422
    -5.7854  -5.1047  -4.3134  -3.6543  -2.1710

     occupation numbers 
     1.0000   1.0000   1.0000   1.0000   1.0000   1.0000   1.0000   1.0000
     1.0000   1.0000   1.0000   1.0000   1.0000

          k = 0.1667-0.4811 0.0000 (  2187 PWs)   bands (ev):

   -74.0867 -40.4608 -40.2805 -40.2793 -14.0160 -13.7897  -7.4592  -6.8422
    -5.7854  -5.1047  -4.3134  -3.6543  -2.1710

     occupation numbers 
     1.0000   1.0000   1.0000   1.0000   1.0000   1.0000   1.0000   1.0000
     1.0000   1.0000   1.0000   1.0000   1.0000

          k = 0.1667-0.2887 0.0000 (  2186 PWs)   bands (ev):

   -74.0853 -40.3584 -40.3055 -40.2192 -14.9379 -14.1769  -6.8686  -5.9844
    -5.5352  -5.0329  -3.7566  -2.9885  -2.4564

     occupation numbers 
     1.0000   1.0000   1.0000   1.0000   1.0000   1.0000   1.0000   1.0000
     1.0000   1.0000   1.0000   1.0000   1.0000

          k = 0.3333-0.1925 0.0000 (  2186 PWs)   bands (ev):

   -74.0858 -40.4185 -40.2971 -40.2135 -14.6564 -14.0638  -7.2817  -6.1376
    -5.9797  -4.5556  -3.6076  -3.0274  -2.8402

     occupation numbers 
     1.0000   1.0000   1.0000   1.0000   1.0000   1.0000   1.0000   1.0000
     1.0000   1.0000   1.0000   1.0000   1.0000

          k = 0.3333 0.0000 0.0000 (  2186 PWs)   bands (ev):

   -74.0853 -40.3584 -40.3055 -40.2192 -14.9379 -14.1769  -6.8686  -5.9844
    -5.5352  -5.0329  -3.7566  -2.9885  -2.4564

     occupation numbers 
     1.0000   1.0000   1.0000   1.0000   1.0000   1.0000   1.0000   1.0000
     1.0000   1.0000   1.0000   1.0000   1.0000

          k = 0.3333 0.1925 0.0000 (  2186 PWs)   bands (ev):

   -74.0858 -40.4185 -40.2971 -40.2135 -14.6564 -14.0638  -7.2817  -6.1376
    -5.9797  -4.5556  -3.6076  -3.0274  -2.8402

     occupation numbers 
     1.0000   1.0000   1.0000   1.0000   1.0000   1.0000   1.0000   1.0000
     1.0000   1.0000   1.0000   1.0000   1.0000

          k = 0.3333-0.7698 0.0000 (  2187 PWs)   bands (ev):

   -74.0867 -40.4608 -40.2805 -40.2793 -14.0160 -13.7897  -7.4592  -6.8422
    -5.7854  -5.1047  -4.3134  -3.6543  -2.1710

     occupation numbers 
     1.0000   1.0000   1.0000   1.0000   1.0000   1.0000   1.0000   1.0000
     1.0000   1.0000   1.0000   1.0000   1.0000

          k = 0.3333-0.5774 0.0000 (  2196 PWs)   bands (ev):

   -74.1069 -40.4141 -40.3829 -40.2726 -13.6838 -13.6068  -7.3743  -6.8210
    -6.0918  -5.4207  -4.8921  -4.0623  -1.6017

     occupation numbers 
     1.0000   1.0000   1.0000   1.0000   1.0000   1.0000   1.0000   1.0000
     1.0000   1.0000   1.0000   1.0000   1.0000

          k = 0.3333-0.3849 0.0000 (  2187 PWs)   bands (ev):

   -74.0867 -40.4608 -40.2805 -40.2793 -14.0160 -13.7897  -7.4592  -6.8422
    -5.7854  -5.1047  -4.3134  -3.6543  -2.1710

     occupation numbers 
     1.0000   1.0000   1.0000   1.0000   1.0000   1.0000   1.0000   1.0000
     1.0000   1.0000   1.0000   1.0000   1.0000

          k =-0.5000 0.2887 0.0000 (  2208 PWs)   bands (ev):

   -74.1296 -40.5057 -40.2812 -40.2351 -14.0016 -13.8133  -7.9989  -6.8143
    -6.0152  -4.9045  -3.8363  -2.7160  -2.5564

     occupation numbers 
     1.0000   1.0000   1.0000   1.0000   1.0000   1.0000   1.0000   1.0000
     1.0000   1.0000   1.0000   1.0000   1.0000

          k =-0.5000 0.4811 0.0000 (  2187 PWs)   bands (ev):

   -74.0867 -40.4608 -40.2805 -40.2793 -14.0160 -13.7897  -7.4592  -6.8422
    -5.7854  -5.1047  -4.3134  -3.6543  -2.1710

     occupation numbers 
     1.0000   1.0000   1.0000   1.0000   1.0000   1.0000   1.0000   1.0000
     1.0000   1.0000   1.0000   1.0000   1.0000

          k =-0.5000 0.6736 0.0000 (  2187 PWs)   bands (ev):

   -74.0867 -40.4608 -40.2805 -40.2793 -14.0160 -13.7897  -7.4592  -6.8422
    -5.7854  -5.1047  -4.3134  -3.6543  -2.1710

     occupation numbers 
     1.0000   1.0000   1.0000   1.0000   1.0000   1.0000   1.0000   1.0000
     1.0000   1.0000   1.0000   1.0000   1.0000

          k =-0.5000-0.2887 0.0000 (  2208 PWs)   bands (ev):

   -74.1296 -40.5057 -40.2812 -40.2351 -14.0016 -13.8133  -7.9989  -6.8143
    -6.0152  -4.9045  -3.8363  -2.7160  -2.5564

     occupation numbers 
     1.0000   1.0000   1.0000   1.0000   1.0000   1.0000   1.0000   1.0000
     1.0000   1.0000   1.0000   1.0000   1.0000

          k =-0.5000-0.0962 0.0000 (  2187 PWs)   bands (ev):

   -74.0867 -40.4608 -40.2805 -40.2793 -14.0160 -13.7897  -7.4592  -6.8422
    -5.7854  -5.1047  -4.3134  -3.6543  -2.1710

     occupation numbers 
     1.0000   1.0000   1.0000   1.0000   1.0000   1.0000   1.0000   1.0000
     1.0000   1.0000   1.0000   1.0000   1.0000

          k =-0.5000 0.0962 0.0000 (  2187 PWs)   bands (ev):

   -74.0867 -40.4608 -40.2805 -40.2793 -14.0160 -13.7897  -7.4592  -6.8422
    -5.7854  -5.1047  -4.3134  -3.6543  -2.1710

     occupation numbers 
     1.0000   1.0000   1.0000   1.0000   1.0000   1.0000   1.0000   1.0000
     1.0000   1.0000   1.0000   1.0000   1.0000

          k =-0.3333 0.1925 0.0000 (  2186 PWs)   bands (ev):

   -74.0858 -40.4185 -40.2971 -40.2135 -14.6564 -14.0638  -7.2817  -6.1376
    -5.9797  -4.5556  -3.6076  -3.0274  -2.8402

     occupation numbers 
     1.0000   1.0000   1.0000   1.0000   1.0000   1.0000   1.0000   1.0000
     1.0000   1.0000   1.0000   1.0000   1.0000

          k =-0.3333 0.3849 0.0000 (  2187 PWs)   bands (ev):

   -74.0867 -40.4608 -40.2805 -40.2793 -14.0160 -13.7897  -7.4592  -6.8422
    -5.7854  -5.1047  -4.3134  -3.6543  -2.1710

     occupation numbers 
     1.0000   1.0000   1.0000   1.0000   1.0000   1.0000   1.0000   1.0000
     1.0000   1.0000   1.0000   1.0000   1.0000

          k =-0.3333 0.5774 0.0000 (  2196 PWs)   bands (ev):

   -74.1069 -40.4141 -40.3829 -40.2726 -13.6838 -13.6068  -7.3743  -6.8210
    -6.0918  -5.4207  -4.8921  -4.0623  -1.6017

     occupation numbers 
     1.0000   1.0000   1.0000   1.0000   1.0000   1.0000   1.0000   1.0000
     1.0000   1.0000   1.0000   1.0000   1.0000

          k =-0.3333-0.3849 0.0000 (  2187 PWs)   bands (ev):

   -74.0867 -40.4608 -40.2805 -40.2793 -14.0160 -13.7897  -7.4592  -6.8422
    -5.7854  -5.1047  -4.3134  -3.6543  -2.1710

     occupation numbers 
     1.0000   1.0000   1.0000   1.0000   1.0000   1.0000   1.0000   1.0000
     1.0000   1.0000   1.0000   1.0000   1.0000

          k =-0.3333-0.1925 0.0000 (  2186 PWs)   bands (ev):

   -74.0858 -40.4185 -40.2971 -40.2135 -14.6564 -14.0638  -7.2817  -6.1376
    -5.9797  -4.5556  -3.6076  -3.0274  -2.8402

     occupation numbers 
     1.0000   1.0000   1.0000   1.0000   1.0000   1.0000   1.0000   1.0000
     1.0000   1.0000   1.0000   1.0000   1.0000

          k =-0.3333 0.0000 0.0000 (  2186 PWs)   bands (ev):

   -74.0853 -40.3584 -40.3055 -40.2192 -14.9379 -14.1769  -6.8686  -5.9844
    -5.5352  -5.0329  -3.7566  -2.9885  -2.4564

     occupation numbers 
     1.0000   1.0000   1.0000   1.0000   1.0000   1.0000   1.0000   1.0000
     1.0000   1.0000   1.0000   1.0000   1.0000

          k =-0.1667 0.0962 0.0000 (  2193 PWs)   bands (ev):

   -74.0950 -40.3296 -40.2407 -40.1698 -15.7005 -14.4797  -7.3613  -5.2592
    -4.7791  -3.8476  -3.6655  -3.0158  -2.0747

     occupation numbers 
     1.0000   1.0000   1.0000   1.0000   1.0000   1.0000   1.0000   1.0000
     1.0000   1.0000   1.0000   1.0000   1.0000

          k =-0.1667 0.2887 0.0000 (  2186 PWs)   bands (ev):

   -74.0853 -40.3584 -40.3055 -40.2192 -14.9379 -14.1769  -6.8686  -5.9844
    -5.5352  -5.0329  -3.7566  -2.9885  -2.4564

     occupation numbers 
     1.0000   1.0000   1.0000   1.0000   1.0000   1.0000   1.0000   1.0000
     1.0000   1.0000   1.0000   1.0000   1.0000

          k =-0.1667 0.4811 0.0000 (  2187 PWs)   bands (ev):

   -74.0867 -40.4608 -40.2805 -40.2793 -14.0160 -13.7897  -7.4592  -6.8422
    -5.7854  -5.1047  -4.3134  -3.6543  -2.1710

     occupation numbers 
     1.0000   1.0000   1.0000   1.0000   1.0000   1.0000   1.0000   1.0000
     1.0000   1.0000   1.0000   1.0000   1.0000

          k =-0.1667-0.4811 0.0000 (  2187 PWs)   bands (ev):

   -74.0867 -40.4608 -40.2805 -40.2793 -14.0160 -13.7897  -7.4592  -6.8422
    -5.7854  -5.1047  -4.3134  -3.6543  -2.1710

     occupation numbers 
     1.0000   1.0000   1.0000   1.0000   1.0000   1.0000   1.0000   1.0000
     1.0000   1.0000   1.0000   1.0000   1.0000

          k =-0.1667-0.2887 0.0000 (  2186 PWs)   bands (ev):

   -74.0853 -40.3584 -40.3055 -40.2192 -14.9379 -14.1769  -6.8686  -5.9844
    -5.5352  -5.0329  -3.7566  -2.9885  -2.4564

     occupation numbers 
     1.0000   1.0000   1.0000   1.0000   1.0000   1.0000   1.0000   1.0000
     1.0000   1.0000   1.0000   1.0000   1.0000

          k =-0.1667-0.0962 0.0000 (  2193 PWs)   bands (ev):

   -74.0950 -40.3296 -40.2407 -40.1698 -15.7005 -14.4797  -7.3613  -5.2592
    -4.7791  -3.8476  -3.6655  -3.0158  -2.0747

     occupation numbers 
     1.0000   1.0000   1.0000   1.0000   1.0000   1.0000   1.0000   1.0000
     1.0000   1.0000   1.0000   1.0000   1.0000

     highest occupied level (ev):    -1.6017

!    total energy              =    -195.30479594 Ry
     estimated scf accuracy    <       0.00000015 Ry

     The total energy is the sum of the following terms:
     one-electron contribution =   -1543.74917010 Ry
     hartree contribution      =     770.41200289 Ry
     xc contribution           =     -45.74755578 Ry
     ewald contribution        =     623.77992705 Ry

     convergence has been achieved in  12 iterations

     Writing all to output data dir ./WS2.save/

     init_run     :      0.29s CPU      0.29s WALL (       1 calls)
     electrons    :      1.95s CPU      1.19s WALL (       1 calls)

     Called by init_run:
     wfcinit      :      0.06s CPU      0.04s WALL (       1 calls)
     wfcinit:atom :      0.00s CPU      0.00s WALL (       6 calls)
     wfcinit:wfcr :      0.05s CPU      0.04s WALL (       6 calls)
     potinit      :      0.05s CPU      0.04s WALL (       1 calls)
     hinit0       :      0.18s CPU      0.18s WALL (       1 calls)

     Called by electrons:
     c_bands      :      1.65s CPU      0.98s WALL (      13 calls)
     sum_band     :      0.21s CPU      0.14s WALL (      13 calls)
     v_of_rho     :      0.06s CPU      0.05s WALL (      13 calls)
     v_h          :      0.00s CPU      0.00s WALL (      13 calls)
     v_xc         :      0.05s CPU      0.04s WALL (      13 calls)
     mix_rho      :      0.01s CPU      0.01s WALL (      13 calls)

     Called by c_bands:
     init_us_2    :      0.02s CPU      0.01s WALL (     162 calls)
     init_us_2:cp :      0.02s CPU      0.01s WALL (     162 calls)
     cegterg      :      1.30s CPU      0.77s WALL (      78 calls)

     Called by sum_band:
     sum_band:wei :      0.00s CPU      0.00s WALL (      13 calls)
     sum_band:loo :      0.17s CPU      0.10s WALL (      13 calls)
     sum_band:buf :      0.00s CPU      0.00s WALL (      78 calls)
     sum_band:ini :      0.01s CPU      0.01s WALL (      78 calls)

     Called by *egterg:
     cdiaghg      :      0.13s CPU      0.08s WALL (     271 calls)
     cegterg:over :      0.07s CPU      0.04s WALL (     199 calls)
     cegterg:upda :      0.02s CPU      0.01s WALL (     199 calls)
     cegterg:last :      0.01s CPU      0.01s WALL (      78 calls)
     h_psi        :      1.06s CPU      0.63s WALL (     283 calls)
     g_psi        :      0.00s CPU      0.00s WALL (     199 calls)

     Called by h_psi:
     h_psi:calbec :      0.10s CPU      0.07s WALL (     283 calls)
     vloc_psi     :      0.86s CPU      0.52s WALL (     283 calls)
     add_vuspsi   :      0.10s CPU      0.04s WALL (     283 calls)

     General routines
     calbec       :      0.10s CPU      0.07s WALL (     283 calls)
     fft          :      0.20s CPU      0.19s WALL (     131 calls)
     ffts         :      0.00s CPU      0.00s WALL (      13 calls)
     fftw         :      0.97s CPU      0.59s WALL (    6252 calls)

     Parallel routines

     PWSCF        :      2.38s CPU      1.84s WALL


   This run was terminated on:   0: 1:46  26Apr2023            

=------------------------------------------------------------------------------=
   JOB DONE.
=------------------------------------------------------------------------------=
Note: The following floating-point exceptions are signalling: IEEE_DENORMAL
Note: The following floating-point exceptions are signalling: IEEE_DENORMAL
Note: The following floating-point exceptions are signalling: IEEE_DENORMAL
Note: The following floating-point exceptions are signalling: IEEE_DENORMAL
Note: The following floating-point exceptions are signalling: IEEE_DENORMAL
Note: The following floating-point exceptions are signalling: IEEE_DENORMAL
Note: The following floating-point exceptions are signalling: IEEE_DENORMAL
Note: The following floating-point exceptions are signalling: IEEE_DENORMAL
Note: The following floating-point exceptions are signalling: IEEE_DENORMAL
Note: The following floating-point exceptions are signalling: IEEE_DENORMAL
Note: The following floating-point exceptions are signalling: IEEE_DENORMAL
Note: The following floating-point exceptions are signalling: IEEE_DENORMAL
Note: The following floating-point exceptions are signalling: IEEE_DENORMAL
Note: The following floating-point exceptions are signalling: IEEE_DENORMAL
Note: The following floating-point exceptions are signalling: IEEE_DENORMAL
Note: The following floating-point exceptions are signalling: IEEE_DENORMAL
Note: The following floating-point exceptions are signalling: IEEE_DENORMAL
Note: The following floating-point exceptions are signalling: IEEE_DENORMAL
Note: The following floating-point exceptions are signalling: IEEE_DENORMAL
Note: The following floating-point exceptions are signalling: IEEE_DENORMAL
Note: The following floating-point exceptions are signalling: IEEE_DENORMAL
Note: The following floating-point exceptions are signalling: IEEE_DENORMAL
Note: The following floating-point exceptions are signalling: IEEE_DENORMAL
Note: The following floating-point exceptions are signalling: IEEE_DENORMAL
Note: The following floating-point exceptions are signalling: IEEE_DENORMAL
Note: The following floating-point exceptions are signalling: IEEE_DENORMAL
Note: The following floating-point exceptions are signalling: IEEE_DENORMAL
Note: The following floating-point exceptions are signalling: IEEE_DENORMAL
Note: The following floating-point exceptions are signalling: IEEE_DENORMAL
Note: The following floating-point exceptions are signalling: IEEE_DENORMAL
Note: The following floating-point exceptions are signalling: IEEE_DENORMAL
Note: The following floating-point exceptions are signalling: IEEE_DENORMAL
Note: The following floating-point exceptions are signalling: IEEE_DENORMAL
Note: The following floating-point exceptions are signalling: IEEE_DENORMAL
Note: The following floating-point exceptions are signalling: IEEE_DENORMAL
Note: The following floating-point exceptions are signalling: IEEE_DENORMAL
Note: The following floating-point exceptions are signalling: IEEE_DENORMAL
Note: The following floating-point exceptions are signalling: IEEE_DENORMAL
Note: The following floating-point exceptions are signalling: IEEE_DENORMAL
Note: The following floating-point exceptions are signalling: IEEE_DENORMAL
Note: The following floating-point exceptions are signalling: IEEE_DENORMAL
Note: The following floating-point exceptions are signalling: IEEE_DENORMAL
Note: The following floating-point exceptions are signalling: IEEE_DENORMAL
Note: The following floating-point exceptions are signalling: IEEE_DENORMAL
Note: The following floating-point exceptions are signalling: IEEE_DENORMAL
Note: The following floating-point exceptions are signalling: IEEE_DENORMAL
Note: The following floating-point exceptions are signalling: IEEE_DENORMAL
Note: The following floating-point exceptions are signalling: IEEE_DENORMAL
Note: The following floating-point exceptions are signalling: IEEE_DENORMAL
Note: The following floating-point exceptions are signalling: IEEE_DENORMAL
Note: The following floating-point exceptions are signalling: IEEE_DENORMAL
Note: The following floating-point exceptions are signalling: IEEE_DENORMAL
Note: The following floating-point exceptions are signalling: IEEE_DENORMAL
Note: The following floating-point exceptions are signalling: IEEE_DENORMAL
Note: The following floating-point exceptions are signalling: IEEE_DENORMAL
Note: The following floating-point exceptions are signalling: IEEE_DENORMAL
Note: The following floating-point exceptions are signalling: IEEE_DENORMAL
Note: The following floating-point exceptions are signalling: IEEE_DENORMAL
Note: The following floating-point exceptions are signalling: IEEE_DENORMAL
Note: The following floating-point exceptions are signalling: IEEE_DENORMAL
Note: The following floating-point exceptions are signalling: IEEE_DENORMAL
Note: The following floating-point exceptions are signalling: IEEE_DENORMAL
Note: The following floating-point exceptions are signalling: IEEE_DENORMAL
Note: The following floating-point exceptions are signalling: IEEE_DENORMAL
Note: The following floating-point exceptions are signalling: IEEE_DENORMAL
Note: The following floating-point exceptions are signalling: IEEE_DENORMAL
Note: The following floating-point exceptions are signalling: IEEE_DENORMAL
Note: The following floating-point exceptions are signalling: IEEE_DENORMAL
Note: The following floating-point exceptions are signalling: IEEE_DENORMAL
Note: The following floating-point exceptions are signalling: IEEE_DENORMAL
Note: The following floating-point exceptions are signalling: IEEE_DENORMAL
Note: The following floating-point exceptions are signalling: IEEE_DENORMAL
Note: The following floating-point exceptions are signalling: IEEE_DENORMAL
Note: The following floating-point exceptions are signalling: IEEE_DENORMAL
Note: The following floating-point exceptions are signalling: IEEE_DENORMAL
Note: The following floating-point exceptions are signalling: IEEE_DENORMAL
Note: The following floating-point exceptions are signalling: IEEE_DENORMAL
Note: The following floating-point exceptions are signalling: IEEE_DENORMAL
Note: The following floating-point exceptions are signalling: IEEE_DENORMAL
Note: The following floating-point exceptions are signalling: IEEE_DENORMAL
Note: The following floating-point exceptions are signalling: IEEE_DENORMAL
Note: The following floating-point exceptions are signalling: IEEE_DENORMAL
Note: The following floating-point exceptions are signalling: IEEE_DENORMAL
Note: The following floating-point exceptions are signalling: IEEE_DENORMAL
Note: The following floating-point exceptions are signalling: IEEE_DENORMAL
Note: The following floating-point exceptions are signalling: IEEE_DENORMAL
Note: The following floating-point exceptions are signalling: IEEE_DENORMAL
Note: The following floating-point exceptions are signalling: IEEE_DENORMAL
Note: The following floating-point exceptions are signalling: IEEE_DENORMAL
Note: The following floating-point exceptions are signalling: IEEE_DENORMAL
Note: The following floating-point exceptions are signalling: IEEE_DENORMAL
Note: The following floating-point exceptions are signalling: IEEE_DENORMAL
Note: The following floating-point exceptions are signalling: IEEE_DENORMAL
Note: The following floating-point exceptions are signalling: IEEE_DENORMAL
Note: The following floating-point exceptions are signalling: IEEE_DENORMAL
Note: The following floating-point exceptions are signalling: IEEE_DENORMAL
Note: The following floating-point exceptions are signalling: IEEE_DENORMAL
Note: The following floating-point exceptions are signalling: IEEE_DENORMAL
Note: The following floating-point exceptions are signalling: IEEE_DENORMAL
Note: The following floating-point exceptions are signalling: IEEE_DENORMAL
Note: The following floating-point exceptions are signalling: IEEE_DENORMAL
Note: The following floating-point exceptions are signalling: IEEE_DENORMAL
Note: The following floating-point exceptions are signalling: IEEE_DENORMAL
Note: The following floating-point exceptions are signalling: IEEE_DENORMAL
Note: The following floating-point exceptions are signalling: IEEE_DENORMAL
Note: The following floating-point exceptions are signalling: IEEE_DENORMAL
Note: The following floating-point exceptions are signalling: IEEE_DENORMAL
Note: The following floating-point exceptions are signalling: IEEE_DENORMAL
Note: The following floating-point exceptions are signalling: IEEE_DENORMAL
Note: The following floating-point exceptions are signalling: IEEE_DENORMAL
Note: The following floating-point exceptions are signalling: IEEE_DENORMAL
Note: The following floating-point exceptions are signalling: IEEE_DENORMAL
Note: The following floating-point exceptions are signalling: IEEE_DENORMAL
Note: The following floating-point exceptions are signalling: IEEE_DENORMAL
Note: The following floating-point exceptions are signalling: IEEE_DENORMAL
Note: The following floating-point exceptions are signalling: IEEE_DENORMAL
Note: The following floating-point exceptions are signalling: IEEE_DENORMAL
Note: The following floating-point exceptions are signalling: IEEE_DENORMAL
Note: The following floating-point exceptions are signalling: IEEE_DENORMAL
Note: The following floating-point exceptions are signalling: IEEE_DENORMAL
Note: The following floating-point exceptions are signalling: IEEE_DENORMAL
Note: The following floating-point exceptions are signalling: IEEE_DENORMAL
Note: The following floating-point exceptions are signalling: IEEE_DENORMAL
Note: The following floating-point exceptions are signalling: IEEE_DENORMAL
Note: The following floating-point exceptions are signalling: IEEE_DENORMAL
Note: The following floating-point exceptions are signalling: IEEE_DENORMAL
