<preamble>

<basis_specs>
===============================================================================
S                    Z=  16    Mass=  32.070        Charge= 0.17977+309
Lmxo=2 Lmxkb= 1    BasisType=split      Semic=F
L=0  Nsemic=0  Cnfigmx=3
          i=1  nzeta=2  polorb=0  (3s)
            splnorm:   0.15000    
               vcte:    0.0000    
               rinn:    0.0000    
               qcoe:    0.0000    
               qyuk:    0.0000    
               qwid:   0.10000E-01
                rcs:    4.1677      3.4986    
            lambdas:    1.0000      1.0000    
L=1  Nsemic=0  Cnfigmx=3
          i=1  nzeta=2  polorb=1  (3p)  (to be polarized perturbatively)
            splnorm:   0.15000    
               vcte:    0.0000    
               rinn:    0.0000    
               qcoe:    0.0000    
               qyuk:    0.0000    
               qwid:   0.10000E-01
                rcs:    5.0905      3.8185    
            lambdas:    1.0000      1.0000    
L=2  Nsemic=0  Cnfigmx=3
          i=1  nzeta=0  polorb=0  (3d)  (perturbative polarization orbital) (from 3p)
-------------------------------------------------------------------------------
L=0  Nkbl=1  erefs: 0.17977+309
L=1  Nkbl=1  erefs: 0.17977+309
===============================================================================
</basis_specs>

<pseudopotential_header>
 S  ca nrl nc  
 ONCVPSP-3.2023-06-28Hamann's oncvpsp                        
 3s 2.00  r= 2.13/3p 4.00  r= 1.52/                                     3s:3p:
</pseudopotential_header>
</preamble>
S                             # Symbol
S                             # Label
   16                         # Atomic number
     6.00000000000                             # Valence charge
     32.0700000000        # Mass 
     77.2327046268        # Self energy 
   2   5                      # Lmax for basis, no. of nl orbitals 
   1   4                      # Lmax for projectors, no. of nl KB projectors
# PAOs:__________________________
  0  3  1  0  2.000000   #orbital l, n, z, is_polarized, population
 500    0.8352185907909388E-02     4.167740768046785     # npts, delta, cutoff
     0.000000000000000        0.1454723861428585    
    0.8352185907909388E-02    0.1455698376797585    
    0.1670437181581878E-01    0.1458629524439588    
    0.2505655772372816E-01    0.1463512121725459    
    0.3340874363163755E-01    0.1470342197680222    
    0.4176092953954694E-01    0.1479114199157746    
    0.5011311544745633E-01    0.1489820996746282    
    0.5846530135536572E-01    0.1502453892472255    
    0.6681748726327510E-01    0.1517002629210438    
    0.7516967317118449E-01    0.1533455401778354    
    0.8352185907909387E-01    0.1551798869697355    
    0.9187404498700327E-01    0.1572018171601542    
    0.1002262308949127        0.1594096941273409    
    0.1085784168028220        0.1618017325282794    
    0.1169306027107314        0.1643760002203409    
    0.1252827886186408        0.1671304203379033    
    0.1336349745265502        0.1700627735209364    
    0.1419871604344596        0.1731707002923473    
    0.1503393463423690        0.1764517035806954    
    0.1586915322502784        0.1799031513846931    
    0.1670437181581877        0.1835222795757353    
    0.1753959040660971        0.1873061948345267    
    0.1837480899740065        0.1912518777177086    
    0.1921002758819159        0.1953561858502343    
    0.2004524617898253        0.1996158572390804    
    0.2088046476977347        0.2040275137037422    
    0.2171568336056441        0.2085876644188170    
    0.2255090195135535        0.2132927095638528    
    0.2338612054214629        0.2181389440755078    
    0.2422133913293723        0.2231225614969540    
    0.2505655772372816        0.2282396579193511    
    0.2589177631451910        0.2334862360101028    
    0.2672699490531004        0.2388582091225373    
    0.2756221349610098        0.2443514054815433    
    0.2839743208689192        0.2499615724396431    
    0.2923265067768286        0.2556843807978931    
    0.3006786926847380        0.2615154291859711    
    0.3090308785926474        0.2674502484957317    
    0.3173830645005568        0.2734843063625054    
    0.3257352504084661        0.2796130116883510    
    0.3340874363163755        0.2858317192014874    
    0.3424396222242849        0.2921357340460857    
    0.3507918081321943        0.2985203163966218    
    0.3591439940401037        0.3049806860909978    
    0.3674961799480131        0.3115120272766312    
    0.3758483658559225        0.3181094930637747    
    0.3842005517638318        0.3247682101803274    
    0.3925527376717413        0.3314832836224587    
    0.4009049235796506        0.3382498012954205    
    0.4092571094875600        0.3450628386389713    
    0.4176092953954694        0.3519174632319007    
    0.4259614813033788        0.3588087393702454    
    0.4343136672112882        0.3657317326138300    
    0.4426658531191976        0.3726815142958863    
    0.4510180390271070        0.3796531659906039    
    0.4593702249350163        0.3866417839335403    
    0.4677224108429258        0.3936424833899615    
    0.4760745967508351        0.4006504029662994    
    0.4844267826587445        0.4076607088599954    
    0.4927789685666539        0.4146685990432111    
    0.5011311544745632        0.4216693073759169    
    0.5094833403824727        0.4286581076441200    
    0.5178355262903821        0.4356303175190346    
    0.5261877121982914        0.4425813024332490    
    0.5345398981062008        0.4495064793699992    
    0.5428920840141103        0.4564013205619068    
    0.5512442699220196        0.4632613570956266    
    0.5595964558299290        0.4700821824190841    
    0.5679486417378384        0.4768594557480738    
    0.5763008276457477        0.4835889053692477    
    0.5846530135536572        0.4902663318366070    
    0.5930051994615666        0.4968876110588796    
    0.6013573853694759        0.5034486972752354    
    0.6097095712773853        0.5099456259170918    
    0.6180617571852948        0.5163745163538143    
    0.6264139430932041        0.5227315745204155    
    0.6347661290011135        0.5290130954254483    
    0.6431183149090229        0.5352154655375062    
    0.6514705008169323        0.5413351650489372    
    0.6598226867248417        0.5473687700155172    
    0.6681748726327510        0.5533129543710625    
    0.6765270585406604        0.5591644918160696    
    0.6848792444485698        0.5649202575797226    
    0.6932314303564792        0.5705772300547276    
    0.7015836162643886        0.5761324923046193    
    0.7099358021722980        0.5815832334433932    
    0.7182879880802073        0.5869267498874198    
    0.7266401739881168        0.5921604464798149    
    0.7349923598960262        0.5972818374876042    
    0.7433445458039355        0.6022885474721204    
    0.7516967317118449        0.6071783120333267    
    0.7600489176197543        0.6119489784288217    
    0.7684011035276637        0.6165985060684674    
    0.7767532894355731        0.6211249668857752    
    0.7851054753434825        0.6255265455872203    
    0.7934576612513918        0.6298015397809048    
    0.8018098471593013        0.6339483599860625    
    0.8101620330672107        0.6379655295250326    
    0.8185142189751200        0.6418516842994711    
    0.8268664048830294        0.6456055724527003    
    0.8352185907909389        0.6492260539201694    
    0.8435707766988482        0.6527120998701644    
    0.8519229626067576        0.6560627920369838    
    0.8602751485146670        0.6592773219488999    
    0.8686273344225763        0.6623549900533238    
    0.8769795203304858        0.6652952047417153    
    0.8853317062383952        0.6680974812768111    
    0.8936838921463045        0.6707614406248769    
    0.9020360780542139        0.6732868081957530    
    0.9103882639621234        0.6756734124935253    
    0.9187404498700327        0.6779211836807267    
    0.9270926357779421        0.6800301520590543    
    0.9354448216858515        0.6820004464696267    
    0.9437970075937608        0.6838322926158633    
    0.9521491935016703        0.6855260113121218    
    0.9605013794095796        0.6870820166612773    
    0.9688535653174890        0.6885008141644583    
    0.9772057512253984        0.6897829987661777    
    0.9855579371333077        0.6909292528381609    
    0.9939101230412172        0.6919403441051726    
     1.002262308949126        0.6928171235161574    
     1.010614494857036        0.6935605230640514    
     1.018966680764945        0.6941715535576179    
     1.027318866672855        0.6946513023486648    
     1.035671052580764        0.6950009310180156    
     1.044023238488674        0.6952216730235895    
     1.052375424396583        0.6953148313139602    
     1.060727610304492        0.6952817759107394    
     1.069079796212402        0.6951239414631122    
     1.077431982120311        0.6948428247778546    
     1.085784168028221        0.6944399823281295    
     1.094136353936130        0.6939170277443243    
     1.102488539844039        0.6932756292901875    
     1.110840725751949        0.6925175073274598    
     1.119192911659858        0.6916444317721971    
     1.127545097567767        0.6906582195459089    
     1.135897283475677        0.6895607320246062    
     1.144249469383586        0.6883538724888244    
     1.152601655291495        0.6870395835776082    
     1.160953841199405        0.6856198447494195    
     1.169306027107314        0.6840966697528660    
     1.177658213015224        0.6824721041100800    
     1.186010398923133        0.6807482226155457    
     1.194362584831042        0.6789271268522686    
     1.202714770738952        0.6770109426569808    
     1.211066956646861        0.6750018180962676    
     1.219419142554771        0.6729019203892928    
     1.227771328462680        0.6707134328932570    
     1.236123514370590        0.6684385557154136    
     1.244475700278499        0.6660795037789667    
     1.252827886186408        0.6636384985236646    
     1.261180072094318        0.6611177659085018    
     1.269532258002227        0.6585195403254365    
     1.277884443910136        0.6558460616931221    
     1.286236629818046        0.6530995701448018    
     1.294588815725955        0.6502823047473678    
     1.302941001633865        0.6473965022371799    
     1.311293187541774        0.6444443946256416    
     1.319645373449683        0.6414282072228398    
     1.327997559357593        0.6383501568282244    
     1.336349745265502        0.6352124498879193    
     1.344701931173411        0.6320172807202460    
     1.353054117081321        0.6287668297966273    
     1.361406302989230        0.6254632620789595    
     1.369758488897140        0.6221087254144566    
     1.378110674805049        0.6187053489888824    
     1.386462860712958        0.6152552418389785    
     1.394815046620868        0.6117604914248175    
     1.403167232528777        0.6082231622627088    
     1.411519418436687        0.6046452946191925    
     1.419871604344596        0.6010289032665682    
     1.428223790252505        0.5973759763003036    
     1.436575976160415        0.5936884740185914    
     1.444928162068324        0.5899683278642043    
     1.453280347976234        0.5862174394287507    
     1.461632533884143        0.5824376795192779    
     1.469984719792052        0.5786308872871679    
     1.478336905699962        0.5747988694190751    
     1.486689091607871        0.5709433993896943    
     1.495041277515780        0.5670662167759135    
     1.503393463423690        0.5631690266319883    
     1.511745649331599        0.5592534989251311    
     1.520097835239509        0.5553212680309246    
     1.528450021147418        0.5513739322879071    
     1.536802207055327        0.5474130536104557    
     1.545154392963237        0.5434401571592540    
     1.553506578871146        0.5394567310682624    
     1.561858764779056        0.5354642262273613    
     1.570210950686965        0.5314640561194590    
     1.578563136594874        0.5274575967109901    
     1.586915322502784        0.5234461863946702    
     1.595267508410693        0.5194311259830662    
     1.603619694318603        0.5154136787519149    
     1.611971880226512        0.5113950705315160    
     1.620324066134421        0.5073764898450689    
     1.628676252042331        0.5033590880922210    
     1.637028437950240        0.4993439797763829    
     1.645380623858149        0.4953322427743680    
     1.653732809766059        0.4913249186464048    
     1.662084995673968        0.4873230129852789    
     1.670437181581878        0.4833274958025356    
     1.678789367489787        0.4793393019501764    
     1.687141553397696        0.4753593315762333    
     1.695493739305606        0.4713884506120238    
     1.703845925213515        0.4674274912898204    
     1.712198111121425        0.4634772526886173    
     1.720550297029334        0.4595385013063636    
     1.728902482937243        0.4556119716570036    
     1.737254668845153        0.4516983668899186    
     1.745606854753062        0.4477983594305932    
     1.753959040660972        0.4439125916400359    
     1.762311226568881        0.4400416764913126    
     1.770663412476790        0.4361861982616184    
     1.779015598384700        0.4323467132373439    
     1.787367784292609        0.4285237504311086    
     1.795719970200518        0.4247178123082948    
     1.804072156108428        0.4209293755214510    
     1.812424342016337        0.4171588916511548    
     1.820776527924247        0.4134067879509719    
     1.829128713832156        0.4096734680950739    
     1.837480899740065        0.4059593129271144    
     1.845833085647975        0.4022646812080872    
     1.854185271555884        0.3985899103619121    
     1.862537457463794        0.3949353172174003    
     1.870889643371703        0.3913011987443097    
     1.879241829279612        0.3876878327829504    
     1.887594015187522        0.3840954787651205    
     1.895946201095431        0.3805243784252578    
     1.904298387003341        0.3769747565008048    
     1.912650572911250        0.3734468214199214    
     1.921002758819159        0.3699407659756222    
     1.929354944727069        0.3664567679854397    
     1.937707130634978        0.3629949909349861    
     1.946059316542887        0.3595555846046877    
     1.954411502450797        0.3561386856789024    
     1.962763688358706        0.3527444183360963    
     1.971115874266615        0.3493728948195252    
     1.979468060174525        0.3460242159877476    
     1.987820246082434        0.3426984718439984    
     1.996172431990344        0.3393957420440371    
     2.004524617898253        0.3361160963818480    
     2.012876803806162        0.3328595952527532    
     2.021228989714072        0.3296262900933948    
     2.029581175621981        0.3264162237987172    
     2.037933361529891        0.3232294311151128    
     2.046285547437800        0.3200659390092120    
     2.054637733345710        0.3169257670146349    
     2.062989919253619        0.3138089275530371    
     2.071342105161528        0.3107154262305076    
     2.079694291069438        0.3076452621142041    
     2.088046476977347        0.3045984280037922    
     2.096398662885256        0.3015749105423449    
     2.104750848793166        0.2985746906318757    
     2.113103034701075        0.2955977434074936    
     2.121455220608985        0.2926440387616171    
     2.129807406516894        0.2897135408573576    
     2.138159592424803        0.2868062086820417    
     2.146511778332713        0.2839219958439552    
     2.154863964240622        0.2810608512386362    
     2.163216150148532        0.2782227189682359    
     2.171568336056441        0.2754075386097572    
     2.179920521964350        0.2726152453529677    
     2.188272707872259        0.2698457701997763    
     2.196624893780169        0.2670990401236209    
     2.204977079688078        0.2643749782718763    
     2.213329265595988        0.2616735040528242    
     2.221681451503897        0.2589945333430271    
     2.230033637411807        0.2563379786049318    
     2.238385823319716        0.2537037490813769    
     2.246738009227625        0.2510917509124120    
     2.255090195135535        0.2485018872938625    
     2.263442381043444        0.2459340585939891    
     2.271794566951354        0.2433881624955655    
     2.280146752859263        0.2408640941214831    
     2.288498938767172        0.2383617461574901    
     2.296851124675082        0.2358810089734933    
     2.305203310582991        0.2334217707385613    
     2.313555496490900        0.2309839175335173    
     2.321907682398810        0.2285673334596853    
     2.330259868306719        0.2261719007442567    
     2.338612054214629        0.2237974998422673    
     2.346964240122538        0.2214440095353097    
     2.355316426030448        0.2191113070270891    
     2.363668611938357        0.2167992680358805    
     2.372020797846266        0.2145077668839713    
     2.380372983754176        0.2122366765842452    
     2.388725169662085        0.2099858689238776    
     2.397077355569994        0.2077552145453060    
     2.405429541477904        0.2055445830245024    
     2.413781727385813        0.2033538429466948    
     2.422133913293723        0.2011828619795151    
     2.430486099201632        0.1990315069436923    
     2.438838285109541        0.1968996438814148    
     2.447190471017451        0.1947871381223209    
     2.455542656925360        0.1926938543472684    
     2.463894842833270        0.1906196566498896    
     2.472247028741179        0.1885644085960819    
     2.480599214649088        0.1865279732813774    
     2.488951400556997        0.1845102133863427    
     2.497303586464907        0.1825109912300066    
     2.505655772372816        0.1805301688214553    
     2.514007958280726        0.1785676079095416    
     2.522360144188635        0.1766231700308131    
     2.530712330096545        0.1746967165557713    
     2.539064516004454        0.1727881087333935    
     2.547416701912363        0.1708972077340581    
     2.555768887820273        0.1690238746908568    
     2.564121073728182        0.1671679707394373    
     2.572473259636092        0.1653293570562945    
     2.580825445544001        0.1635078948956523    
     2.589177631451910        0.1617034456249084    
     2.597529817359820        0.1599158707587878    
     2.605882003267729        0.1581450319921076    
     2.614234189175638        0.1563907912313019    
     2.622586375083548        0.1546530106246682    
     2.630938560991457        0.1529315525914768    
     2.639290746899367        0.1512262798498454    
     2.647642932807276        0.1495370554435176    
     2.655995118715186        0.1478637427675100    
     2.664347304623095        0.1462062055927585    
     2.672699490531004        0.1445643080896656    
     2.681051676438913        0.1429379148506844    
     2.689403862346823        0.1413268909118971    
     2.697756048254732        0.1397311017737201    
     2.706108234162642        0.1381504134206280    
     2.714460420070551        0.1365846923400329    
     2.722812605978461        0.1350338055402732    
     2.731164791886370        0.1334976205678383    
     2.739516977794279        0.1319760055237215    
     2.747869163702189        0.1304688290790340    
     2.756221349610098        0.1289759604898267    
     2.764573535518008        0.1274972696112511    
     2.772925721425917        0.1260326269109433    
     2.781277907333826        0.1245819034817614    
     2.789630093241735        0.1231449710538223    
     2.797982279149645        0.1217217020059672    
     2.806334465057554        0.1203119693765337    
     2.814686650965464        0.1189156468735675    
     2.823038836873373        0.1175326088844122    
     2.831391022781283        0.1161627304848060    
     2.839743208689192        0.1148058874473648    
     2.848095394597101        0.1134619562495768    
     2.856447580505011        0.1121308140812462    
     2.864799766412920        0.1108123388515162    
     2.873151952320829        0.1095064091953460    
     2.881504138228739        0.1082129044795575    
     2.889856324136648        0.1069317048084374    
     2.898208510044558        0.1056626910288775    
     2.906560695952467        0.1044057447351656    
     2.914912881860376        0.1031607482733055    
     2.923265067768286        0.1019275847449875    
     2.931617253676195        0.1007061380111447    
     2.939969439584105        0.9949629269521772E-01
     2.948321625492014        0.9829793418599751E-01
     2.956673811399924        0.9711094864017157E-01
     2.965025997307833        0.9593522298450326E-01
     2.973378183215742        0.9477064491776538E-01
     2.981730369123651        0.9361710291230468E-01
     2.990082555031561        0.9247448621534250E-01
     2.998434740939470        0.9134268484999410E-01
     3.006786926847380        0.9022158961598385E-01
     3.015139112755289        0.8911109209016602E-01
     3.023491298663199        0.8801108462672341E-01
     3.031843484571108        0.8692146035716182E-01
     3.040195670479017        0.8584211319003031E-01
     3.048547856386927        0.8477293781048342E-01
     3.056900042294836        0.8371382967956011E-01
     3.065252228202745        0.8266468503328334E-01
     3.073604414110655        0.8162540088155813E-01
     3.081956600018564        0.8059587500684527E-01
     3.090308785926474        0.7957600596271469E-01
     3.098660971834383        0.7856569307215266E-01
     3.107013157742292        0.7756483642573560E-01
     3.115365343650202        0.7657333687959990E-01
     3.123717529558111        0.7559109605331825E-01
     3.132069715466021        0.7461801632756196E-01
     3.140421901373930        0.7365400084164489E-01
     3.148774087281839        0.7269895349092834E-01
     3.157126273189749        0.7175277892406026E-01
     3.165478459097658        0.7081538254015092E-01
     3.173830645005567        0.6988667048576129E-01
     3.182182830913477        0.6896654965180389E-01
     3.190535016821386        0.6805492767033045E-01
     3.198887202729296        0.6715171291118241E-01
     3.207239388637205        0.6625681447860113E-01
     3.215591574545114        0.6537014220767677E-01
     3.223943760453024        0.6449160666073366E-01
     3.232295946360933        0.6362111912362550E-01
     3.240648132268843        0.6275859160191759E-01
     3.249000318176752        0.6190393681704831E-01
     3.257352504084661        0.6105706820235177E-01
     3.265704689992571        0.6021789989903696E-01
     3.274056875900480        0.5938634675209695E-01
     3.282409061808389        0.5856232430612546E-01
     3.290761247716299        0.5774574880112811E-01
     3.299113433624208        0.5693653716821569E-01
     3.307465619532118        0.5613460702527606E-01
     3.315817805440027        0.5533987667255910E-01
     3.324169991347937        0.5455226508826989E-01
     3.332522177255846        0.5377169192405968E-01
     3.340874363163755        0.5299807750049847E-01
     3.349226549071665        0.5223134280250713E-01
     3.357578734979574        0.5147140947472360E-01
     3.365930920887483        0.5071819981688857E-01
     3.374283106795393        0.4997163677914476E-01
     3.382635292703302        0.4923164395732936E-01
     3.390987478611212        0.4849814558823876E-01
     3.399339664519121        0.4777106654483990E-01
     3.407691850427030        0.4705033233151126E-01
     3.416044036334940        0.4633586907921009E-01
     3.424396222242849        0.4562760354064293E-01
     3.432748408150759        0.4492546308541389E-01
     3.441100594058668        0.4422937569516067E-01
     3.449452779966578        0.4353926995865216E-01
     3.457804965874486        0.4285507506692483E-01
     3.466157151782396        0.4217672080835477E-01
     3.474509337690305        0.4150413756374644E-01
     3.482861523598215        0.4083725630141283E-01
     3.491213709506124        0.4017600857222531E-01
     3.499565895414034        0.3952032650470871E-01
     3.507918081321943        0.3887014280008195E-01
     3.516270267229852        0.3822539072732090E-01
     3.524622453137762        0.3758600411822041E-01
     3.532974639045671        0.3695191736243214E-01
     3.541326824953581        0.3632306540255401E-01
     3.549679010861490        0.3569938372917246E-01
     3.558031196769399        0.3508080837593183E-01
     3.566383382677309        0.3446727591460912E-01
     3.574735568585218        0.3385872345017072E-01
     3.583087754493127        0.3325508861588315E-01
     3.591439940401037        0.3265630956838549E-01
     3.599792126308946        0.3206232498279201E-01
     3.608144312216856        0.3147307404780007E-01
     3.616496498124765        0.3088849646081220E-01
     3.624848684032675        0.3030853242304819E-01
     3.633200869940584        0.2973312263471339E-01
     3.641553055848493        0.2916220829013420E-01
     3.649905241756402        0.2859573107292887E-01
     3.658257427664312        0.2803363315119195E-01
     3.666609613572221        0.2747585717267196E-01
     3.674961799480131        0.2692234626000774E-01
     3.683313985388040        0.2637304400593715E-01
     3.691666171295950        0.2582789446854257E-01
     3.700018357203859        0.2528684216650924E-01
     3.708370543111768        0.2474983207440412E-01
     3.716722729019678        0.2421680961795377E-01
     3.725074914927587        0.2368772066937978E-01
     3.733427100835497        0.2316251154271237E-01
     3.741779286743406        0.2264112898914255E-01
     3.750131472651315        0.2212352019239365E-01
     3.758483658559225        0.2160963276409274E-01
     3.766835844467134        0.2109941473920188E-01
     3.775188030375043        0.2059281457143037E-01
     3.783540216282953        0.2008978112868608E-01
     3.791892402190862        0.1959026368854424E-01
     3.800244588098772        0.1909421193374041E-01
     3.808596774006681        0.1860157594766726E-01
     3.816948959914590        0.1811230620992942E-01
     3.825301145822500        0.1762635359188316E-01
     3.833653331730409        0.1714366935221588E-01
     3.842005517638318        0.1666420513254432E-01
     3.850357703546228        0.1618791295303768E-01
     3.858709889454137        0.1571474520804765E-01
     3.867062075362047        0.1524465466179413E-01
     3.875414261269956        0.1477759444403931E-01
     3.883766447177865        0.1431351804580147E-01
     3.892118633085775        0.1385237931509145E-01
     3.900470818993684        0.1339413245265563E-01
     3.908823004901594        0.1293873200777486E-01
     3.917175190809503        0.1248613287405408E-01
     3.925527376717413        0.1203629028525034E-01
     3.933879562625322        0.1158915981112096E-01
     3.942231748533231        0.1114469735329768E-01
     3.950583934441140        0.1070285914116898E-01
     3.958936120349050        0.1026360172781594E-01
     3.967288306256959        0.9826881985941172E-02
     3.975640492164869        0.9392657103835210E-02
     3.983992678072778        0.8960884581363255E-02
     3.992344863980688        0.8531522225988724E-02
     4.000697049888597        0.8104528148748069E-02
     4.009049235796506        0.7679860760394940E-02
     4.017401421704416        0.7257478767422091E-02
     4.025753607612325        0.6837341168176084E-02
     4.034105793520235        0.6419407248980984E-02
     4.042457979428144        0.6003636580247391E-02
     4.050810165336054        0.5589989012799719E-02
     4.059162351243963        0.5178424673830823E-02
     4.067514537151872        0.4768903963265610E-02
     4.075866723059781        0.4361387549963418E-02
     4.084218908967690        0.3955836367977012E-02
     4.092571094875600        0.3552211604800146E-02
     4.100923280783509        0.3150474730469185E-02
     4.109275466691419        0.2750587446125564E-02
     4.117627652599328        0.2352511709748276E-02
     4.125979838507238        0.1956209725614247E-02
     4.134332024415147        0.1561643940495850E-02
     4.142684210323057        0.1168776110412176E-02
     4.151036396230966        0.7775709399031771E-03
     4.159388582138876        0.3879910485913818E-03
     4.167740768046785         0.000000000000000    
  0  3  2  0  0.000000   #orbital l, n, z, is_polarized, population
 500    0.7011251256195826E-02     3.498614376841718     # npts, delta, cutoff
     0.000000000000000       -0.4664445795124220E-01
    0.7011251256195826E-02   -0.4654053752283432E-01
    0.1402250251239165E-01   -0.4622757361411670E-01
    0.2103375376858748E-01   -0.4570616477908140E-01
    0.2804500502478331E-01   -0.4497660752405198E-01
    0.3505625628097913E-01   -0.4403931660593674E-01
    0.4206750753717496E-01   -0.4289482473511581E-01
    0.4907875879337079E-01   -0.4154378217167259E-01
    0.5609001004956661E-01   -0.3998695622994668E-01
    0.6310126130576243E-01   -0.3822523069350203E-01
    0.7011251256195826E-01   -0.3625960514140985E-01
    0.7712376381815408E-01   -0.3409119418660145E-01
    0.8413501507434992E-01   -0.3172122662709295E-01
    0.9114626633054575E-01   -0.2915104451095549E-01
    0.9815751758674157E-01   -0.2638210211599849E-01
    0.1051687688429374       -0.2341596484521160E-01
    0.1121800200991332       -0.2025430803910653E-01
    0.1191912713553290       -0.1689891570616987E-01
    0.1262025226115249       -0.1335167917272740E-01
    0.1332137738677207       -0.9614595653587949E-02
    0.1402250251239165       -0.5689766744913642E-02
    0.1472362763801124       -0.1579396840828992E-02