<preamble>

<basis_specs>
===============================================================================
S                    Z=  16    Mass=  32.070        Charge= 0.17977+309
Lmxo=2 Lmxkb= 2    BasisType=split      Semic=F
L=0  Nsemic=0  Cnfigmx=3
          i=1  nzeta=2  polorb=0  (3s)
            splnorm:   0.15000    
               vcte:    0.0000    
               rinn:    0.0000    
               qcoe:    0.0000    
               qyuk:    0.0000    
               qwid:   0.10000E-01
                rcs:    4.1677      3.4986    
            lambdas:    1.0000      1.0000    
L=1  Nsemic=0  Cnfigmx=3
          i=1  nzeta=2  polorb=1  (3p)  (to be polarized perturbatively)
            splnorm:   0.15000    
               vcte:    0.0000    
               rinn:    0.0000    
               qcoe:    0.0000    
               qyuk:    0.0000    
               qwid:   0.10000E-01
                rcs:    5.0905      3.8185    
            lambdas:    1.0000      1.0000    
L=2  Nsemic=0  Cnfigmx=3
          i=1  nzeta=0  polorb=0  (3d)  (perturbative polarization orbital) (from 3p)
-------------------------------------------------------------------------------
L=0  Nkbl=1  erefs: 0.17977+309
L=1  Nkbl=1  erefs: 0.17977+309
L=2  Nkbl=1  erefs: 0.17977+309
===============================================================================
</basis_specs>

<pseudopotential_header>
 S  pw nrl pcec
 ONCVPSP-3.2018-03-09Hamann's oncvpsp                        
 3s 2.00  r= 1.45/3p 4.00  r= 1.45/3d 0.00  r= 1.72/                    3s:3p:
</pseudopotential_header>
</preamble>
S                             # Symbol
S                             # Label
   16                         # Atomic number
     6.00000000000                             # Valence charge
     32.0700000000        # Mass 
     40.6606165852        # Self energy 
   2   5                      # Lmax for basis, no. of nl orbitals 
   2   6                      # Lmax for projectors, no. of nl KB projectors
# PAOs:__________________________
  0  3  1  0  2.000000   #orbital l, n, z, is_polarized, population
 500    0.8352185907909388E-02     4.167740768046785     # npts, delta, cutoff
     0.000000000000000        0.7722549995152111E-01
    0.8352185907909388E-02    0.7733695564852813E-01
    0.1670437181581878E-01    0.7767166780851952E-01
    0.2505655772372816E-01    0.7822918604117529E-01
    0.3340874363163755E-01    0.7900900799177228E-01
    0.4176092953954694E-01    0.8001043184739541E-01
    0.5011311544745633E-01    0.8123255779215635E-01
    0.5846530135536572E-01    0.8267428986735838E-01
    0.6681748726327510E-01    0.8433433821950445E-01
    0.7516967317118449E-01    0.8621122172036967E-01
    0.8352185907909387E-01    0.8830327094140906E-01
    0.9187404498700327E-01    0.9060863146269899E-01
    0.1002262308949127        0.9312526749471570E-01
    0.1085784168028220        0.9585096578958686E-01
    0.1169306027107314        0.9878333981702996E-01
    0.1252827886186408        0.1019198341790430    
    0.1336349745265502        0.1052577292365346    
    0.1419871604344596        0.1087941459204811    
    0.1503393463423690        0.1125260506998937    
    0.1586915322502784        0.1164502606788482    
    0.1670437181581877        0.1205634487950948    
    0.1753959040660971        0.1248621490932961    
    0.1837480899740065        0.1293427620467560    
    0.1921002758819159        0.1340015599025607    
    0.2004524617898253        0.1388346920263659    
    0.2088046476977347        0.1438381902245962    
    0.2171568336056441        0.1490079740235616    
    0.2255090195135535        0.1543398558869223    
    0.2338612054214629        0.1598295463550107    
    0.2422133913293723        0.1654726590917313    
    0.2505655772372816        0.1712647158270806    
    0.2589177631451910        0.1772011511856996    
    0.2672699490531004        0.1832773173943292    
    0.2756221349610098        0.1894884888634580    
    0.2839743208689192        0.1958298666409002    
    0.2923265067768286        0.2022965827374018    
    0.3006786926847380        0.2088837043266940    
    0.3090308785926474        0.2155862378245873    
    0.3173830645005568        0.2223991328537886    
    0.3257352504084661        0.2293172861030011    
    0.3340874363163755        0.2363355450906203    
    0.3424396222242849        0.2434487118448427    
    0.3507918081321943        0.2506515465133162    
    0.3591439940401037        0.2579387709165424    
    0.3674961799480131        0.2653050720600414    
    0.3758483658559225        0.2727451056208877    
    0.3842005517638318        0.2802534994245134    
    0.3925527376717413        0.2878248569277230    
    0.4009049235796506        0.2954537607236610    
    0.4092571094875600        0.3031347760839800    
    0.4176092953954694        0.3108624545527318    
    0.4259614813033788        0.3186313376055608    
    0.4343136672112882        0.3264359603865505    
    0.4426658531191976        0.3342708555336946    
    0.4510180390271070        0.3421305571023711    
    0.4593702249350163        0.3500096045944169    
    0.4677224108429258        0.3579025470984996    
    0.4760745967508351        0.3658039475454742    
    0.4844267826587445        0.3737083870802258    
    0.4927789685666539        0.3816104695494057    
    0.5011311544745632        0.3895048261021208    
    0.5094833403824727        0.3973861198985200    
    0.5178355262903821        0.4052490509188921    
    0.5261877121982914        0.4130883608638292    
    0.5345398981062008        0.4208988381338143    
    0.5428920840141103        0.4286753228747040    
    0.5512442699220196        0.4364127120736379    
    0.5595964558299290        0.4441059646882832    
    0.5679486417378384        0.4517501067907208    
    0.5763008276457477        0.4593402367060258    
    0.5846530135536572        0.4668715301244178    
    0.5930051994615666        0.4743392451650369    
    0.6013573853694759        0.4817387273686696    
    0.6097095712773853        0.4890654145964690    
    0.6180617571852948        0.4963148418114418    
    0.6264139430932041        0.5034826457197261    
    0.6347661290011135        0.5105645692489481    
    0.6431183149090229        0.5175564658416385    
    0.6514705008169323        0.5244543035425568    
    0.6598226867248417        0.5312541688598510    
    0.6681748726327510        0.5379522703813806    
    0.6765270585406604        0.5445449421289841    
    0.6848792444485698        0.5510286466353158    
    0.6932314303564792        0.5573999777296873    
    0.7015836162643886        0.5636556630214590    
    0.7099358021722980        0.5697925660717043    
    0.7182879880802073        0.5758076882460983    
    0.7266401739881168        0.5816981702443897    
    0.7349923598960262        0.5874612933041847    
    0.7433445458039355        0.5930944800791416    
    0.7516967317118449        0.5985952951941573    
    0.7600489176197543        0.6039614454824036    
    0.7684011035276637        0.6091907799113851    
    0.7767532894355731        0.6142812892074458    
    0.7851054753434825        0.6192311051901277    
    0.7934576612513918        0.6240384998298230    
    0.8018098471593013        0.6287018840438977    
    0.8101620330672107        0.6332198062480391    
    0.8185142189751200        0.6375909506810091    
    0.8268664048830294        0.6418141355221765    
    0.8352185907909389        0.6458883108221007    
    0.8435707766988482        0.6498125562672203    
    0.8519229626067576        0.6535860788001709    
    0.8602751485146670        0.6572082101174401    
    0.8686273344225763        0.6606784040661132    
    0.8769795203304858        0.6639962339612148    
    0.8853317062383952        0.6671613898445989    
    0.8936838921463045        0.6701736757057233    
    0.9020360780542139        0.6730330066836083    
    0.9103882639621234        0.6757394062682454    
    0.9187404498700327        0.6782930035183097    
    0.9270926357779421        0.6806940303106497    
    0.9354448216858515        0.6829428186352928    
    0.9437970075937608        0.6850397979480138    
    0.9521491935016703        0.6869854925904716    
    0.9605013794095796        0.6887805192861188    
    0.9688535653174890        0.6904255847244752    
    0.9772057512253984        0.6919214832120877    
    0.9855579371333077        0.6932690943471562    
    0.9939101230412172        0.6944693814106861    
     1.002262308949126        0.6955233872760649    
     1.010614494857036        0.6964322326018029    
     1.018966680764945        0.6971971170214584    
     1.027318866672855        0.6978193157414877    
     1.035671052580764        0.6983001774435568    
     1.044023238488674        0.6986411228826437    
     1.052375424396583        0.6988436430824441    
     1.060727610304492        0.6989092977200533    
     1.069079796212402        0.6988397134949318    
     1.077431982120311        0.6986365825124841    
     1.085784168028221        0.6983016606574416    
     1.094136353936130        0.6978367659472489    
     1.102488539844039        0.6972437768512212    
     1.110840725751949        0.6965246305630963    
     1.119192911659858        0.6956813212144389    
     1.127545097567767        0.6947158980170798    
     1.135897283475677        0.6936304633245289    
     1.144249469383586        0.6924271706022226    
     1.152601655291495        0.6911082222989862    
     1.160953841199405        0.6896758676127031    
     1.169306027107314        0.6881324001449893    
     1.177658213015224        0.6864801554416936    
     1.186010398923133        0.6847215084172197    
     1.194362584831042        0.6828588706622361    
     1.202714770738952        0.6808946875638908    
     1.211066956646861        0.6788314358158273    
     1.219419142554771        0.6766716197175916    
     1.227771328462680        0.6744177674130231    
     1.236123514370590        0.6720724307265091    
     1.244475700278499        0.6696381822802646    
     1.252827886186408        0.6671176059871815    
     1.261180072094318        0.6645132939162888    
     1.269532258002227        0.6618278491414294    
     1.277884443910136        0.6590638815412090    
     1.286236629818046        0.6562240010878122    
     1.294588815725955        0.6533108152413230    
     1.302941001633865        0.6503269263494929    
     1.311293187541774        0.6472749278978081    
     1.319645373449683        0.6441574012117763    
     1.327997559357593        0.6409769123749898    
     1.336349745265502        0.6377360091728466    
     1.344701931173411        0.6344372181844796    
     1.353054117081321        0.6310830420277000    
     1.361406302989230        0.6276759567702610    
     1.369758488897140        0.6242184095276692    
     1.378110674805049        0.6207128162613167    
     1.386462860712958        0.6171615597851595    
     1.394815046620868        0.6135669879918281    
     1.403167232528777        0.6099314123436070    
     1.411519418436687        0.6062571067273416    
     1.419871604344596        0.6025463057455640    
     1.428223790252505        0.5988012045176849    
     1.436575976160415        0.5950239590299177    
     1.444928162068324        0.5912166835436791    
     1.453280347976234        0.5873814534975931    
     1.461632533884143        0.5835203026839496    
     1.469984719792052        0.5796352099135716    
     1.478336905699962        0.5757280968759618    
     1.486689091607871        0.5718008252401632    
     1.495041277515780        0.5678551929336662    
     1.503393463423690        0.5638929402676462    
     1.511745649331599        0.5599157507216302    
     1.520097835239509        0.5559252538143247    
     1.528450021147418        0.5519230240038111    
     1.536802207055327        0.5479105834068216    
     1.545154392963237        0.5438894030422153    
     1.553506578871146        0.5398609041391187    
     1.561858764779056        0.5358264594400299    
     1.570210950686965        0.5317873945040356    
     1.578563136594874        0.5277449889664044    
     1.586915322502784        0.5237004777700843    
     1.595267508410693        0.5196550523708651    
     1.603619694318603        0.5156098619153576    
     1.611971880226512        0.5115660143911700    
     1.620324066134421        0.5075245777510042    
     1.628676252042331        0.5034865810106810    
     1.637028437950240        0.4994530153216132    
     1.645380623858149        0.4954248350181844    
     1.653732809766059        0.4914029586405054    
     1.662084995673968        0.4873882699329823    
     1.670437181581878        0.4833816188191666    
     1.678789367489787        0.4793838223533251    
     1.687141553397696        0.4753956656491674    
     1.695493739305606        0.4714179027861879    
     1.703845925213515        0.4674512576940366    
     1.712198111121425        0.4634964250153655    
     1.720550297029334        0.4595540709475724    
     1.728902482937243        0.4556248340638546    
     1.737254668845153        0.4517093261140080    
     1.745606854753062        0.4478081328053652    
     1.753959040660972        0.4439218145642926    
     1.762311226568881        0.4400509072786455    
     1.770663412476790        0.4361959230215703    
     1.779015598384700        0.4323573507570613    
     1.787367784292609        0.4285356570276427    
     1.795719970200518        0.4247312866245690    
     1.804072156108428        0.4209446632409149    
     1.812424342016337        0.4171761901079228    
     1.820776527924247        0.4134262506149772    
     1.829128713832156        0.4096952089135667    
     1.837480899740065        0.4059834105055786    
     1.845833085647975        0.4022911828162858    
     1.854185271555884        0.3986188357523627    
     1.862537457463794        0.3949666622452661    
     1.870889643371703        0.3913349387803178    
     1.879241829279612        0.3877239259118102    
     1.887594015187522        0.3841338687644579    
     1.895946201095431        0.3805649975215086    
     1.904298387003341        0.3770175278998257    
     1.912650572911250        0.3734916616122418    
     1.921002758819159        0.3699875868174833    
     1.929354944727069        0.3665054785579638    
     1.937707130634978        0.3630454991857250    
     1.946059316542887        0.3596077987768092    
     1.954411502450797        0.3561925155343502    
     1.962763688358706        0.3527997761806375    
     1.971115874266615        0.3494296963384271    
     1.979468060174525        0.3460823809017710    
     1.987820246082434        0.3427579243965987    
     1.996172431990344        0.3394564113313123    
     2.004524617898253        0.3361779165376537    
     2.012876803806162        0.3329225055020558    
     2.021228989714072        0.3296902346877319    
     2.029581175621981        0.3264811518477401    
     2.037933361529891        0.3232952963292258    
     2.046285547437800        0.3201326993690736    
     2.054637733345710        0.3169933843812047    
     2.062989919253619        0.3138773672356927    
     2.071342105161528        0.3107846565299264    
     2.079694291069438        0.3077152538520380    
     2.088046476977347        0.3046691540367570    
     2.096398662885256        0.3016463454139010    
     2.104750848793166        0.2986468100497189    
     2.113103034701075        0.2956705239812215    
     2.121455220608985        0.2927174574437047    
     2.129807406516894        0.2897875750916680    
     2.138159592424803        0.2868808362132500    
     2.146511778332713        0.2839971949383719    
     2.154863964240622        0.2811366004407851    
     2.163216150148532        0.2782989971341290    
     2.171568336056441        0.2754843248621763    
     2.179920521964350        0.2726925190834578    
     2.188272707872259        0.2699235110503519    
     2.196624893780169        0.2671772279828297    
     2.204977079688078        0.2644535932369714    
     2.213329265595988        0.2617525264684378    
     2.221681451503897        0.2590739437909709    
     2.230033637411807        0.2564177579300851    
     2.238385823319716        0.2537838783721179    
     2.246738009227625        0.2511722115086922    
     2.255090195135535        0.2485826607767479    
     2.263442381043444        0.2460151267943036    
     2.271794566951354        0.2434695074919875    
     2.280146752859263        0.2409456982405097    
     2.288498938767172        0.2384435919741509    
     2.296851124675082        0.2359630793104323    
     2.305203310582991        0.2335040486659970    
     2.313555496490900        0.2310663863688404    
     2.321907682398810        0.2286499767670378    
     2.330259868306719        0.2262547023339760    
     2.338612054214629        0.2238804437702541    
     2.346964240122538        0.2215270801023028    
     2.355316426030448        0.2191944887778778    
     2.363668611938357        0.2168825457584286    
     2.372020797846266        0.2145911256084701    
     2.380372983754176        0.2123201015820934    
     2.388725169662085        0.2100693457065939    
     2.397077355569994        0.2078387288633755    
     2.405429541477904        0.2056281208661607    
     2.413781727385813        0.2034373905366505    
     2.422133913293723        0.2012664057776156    
     2.430486099201632        0.1991150336435336    
     2.438838285109541        0.1969831404088991    
     2.447190471017451        0.1948705916341631    
     2.455542656925360        0.1927772522294549    
     2.463894842833270        0.1907029865160913    
     2.472247028741179        0.1886476582860232    
     2.480599214649088        0.1866111308591642    
     2.488951400556997        0.1845932671387510    
     2.497303586464907        0.1825939296647336    
     2.505655772372816        0.1806129806653354    
     2.514007958280726        0.1786502821067289    
     2.522360144188635        0.1767056957409327    
     2.530712330096545        0.1747790831520406    
     2.539064516004454        0.1728703058007159    
     2.547416701912363        0.1709792250670907    
     2.555768887820273        0.1691057022920536    
     2.564121073728182        0.1672495988170695    
     2.572473259636092        0.1654107760224501    
     2.580825445544001        0.1635890953642153    
     2.589177631451910        0.1617844184095207    
     2.597529817359820        0.1599966068707935    
     2.605882003267729        0.1582255226384835    
     2.614234189175638        0.1564710278125725    
     2.622586375083548        0.1547329847328089    
     2.630938560991457        0.1530112560078066    
     2.639290746899367        0.1513057045429081    
     2.647642932807276        0.1496161935669552    
     2.655995118715186        0.1479425866579285    
     2.664347304623095        0.1462847477675867    
     2.672699490531004        0.1446425412450089    
     2.681051676438913        0.1430158318591741    
     2.689403862346823        0.1414044848205369    
     2.697756048254732        0.1398083658017293    
     2.706108234162642        0.1382273409572844    
     2.714460420070551        0.1366612769425150    
     2.722812605978461        0.1351100409315024    
     2.731164791886370        0.1335735006343232    
     2.739516977794279        0.1320515243134041    
     2.747869163702189        0.1305439807991387    
     2.756221349610098        0.1290507395047132    
     2.764573535518008        0.1275716704402722    
     2.772925721425917        0.1261066442263074    
     2.781277907333826        0.1246555321064013    
     2.789630093241735        0.1232182059592707    
     2.797982279149645        0.1217945383102389    
     2.806334465057554        0.1203844023420165    
     2.814686650965464        0.1189876719049209    
     2.823038836873373        0.1176042215264752    
     2.831391022781283        0.1162339264205149    
     2.839743208689192        0.1148766624956809    
     2.848095394597101        0.1135323063634242    
     2.856447580505011        0.1122007353454616    
     2.864799766412920        0.1108818274808095    
     2.873151952320829        0.1095754615322731    
     2.881504138228739        0.1082815169925055    
     2.889856324136648        0.1069998740896226    
     2.898208510044558        0.1057304137923565    
     2.906560695952467        0.1044730178148598    
     2.914912881860376        0.1032275686210398    
     2.923265067768286        0.1019939494285428    
     2.931617253676195        0.1007720442123249    
     2.939969439584105        0.9956173770793172E-01
     2.948321625492014        0.9836291541435616E-01
     2.956673811399924        0.9717546359659961E-01
     2.965025997307833        0.9599926928786734E-01
     2.973378183215742        0.9483422029151735E-01
     2.981730369123651        0.9368020518264099E-01
     2.990082555031561        0.9253711330937993E-01
     2.998434740939470        0.9140483479396165E-01
     3.006786926847380        0.9028326053343112E-01
     3.015139112755289        0.8917228220018841E-01
     3.023491298663199        0.8807179224220407E-01
     3.031843484571108        0.8698168388303047E-01
     3.040195670479017        0.8590185112153922E-01
     3.048547856386927        0.8483218873150064E-01
     3.056900042294836        0.8377259226087981E-01
     3.065252228202745        0.8272295803095361E-01
     3.073604414110655        0.8168318313522620E-01
     3.081956600018564        0.8065316543812034E-01
     3.090308785926474        0.7963280357354817E-01
     3.098660971834383        0.7862199694323618E-01
     3.107013157742292        0.7762064571491649E-01
     3.115365343650202        0.7662865082031461E-01
     3.123717529558111        0.7564591395304342E-01
     3.132069715466021        0.7467233756628304E-01
     3.140421901373930        0.7370782487034271E-01
     3.148774087281839        0.7275227983008331E-01
     3.157126273189749        0.7180560716217446E-01
     3.165478459097658        0.7086771233228771E-01
     3.173830645005567        0.6993850155210264E-01
     3.182182830913477        0.6901788177622563E-01
     3.190535016821386        0.6810576069899493E-01
     3.198887202729296        0.6720204675114871E-01
     3.207239388637205        0.6630664909645317E-01
     3.215591574545114        0.6541947762816859E-01
     3.223943760453024        0.6454044296545225E-01
     3.232295946360933        0.6366945644967115E-01
     3.240648132268843        0.6280643014060139E-01
     3.249000318176752        0.6195127681260711E-01
     3.257352504084661        0.6110390995068012E-01
     3.265704689992571        0.6026424374643634E-01
     3.274056875900480        0.5943219309404191E-01
     3.282409061808389        0.5860767358604668E-01
     3.290761247716299        0.5779060150921252E-01
     3.299113433624208        0.5698089384022319E-01
     3.307465619532118        0.5617846824137261E-01
     3.315817805440027        0.5538324305616754E-01
     3.324169991347937        0.5459513730493560E-01
     3.332522177255846        0.5381407068033350E-01
     3.340874363163755        0.5303996354283578E-01
     3.349226549071665        0.5227273691618361E-01
     3.357578734979574        0.5151231248276420E-01
     3.365930920887483        0.5075861257901673E-01
     3.374283106795393        0.5001156019074489E-01
     3.382635292703302        0.4927107894842540E-01
     3.390987478611212        0.4853709312248661E-01
     3.399339664519121        0.4780952761854249E-01
     3.407691850427030        0.4708830797263811E-01
     3.416044036334940        0.4637336034643844E-01
     3.424396222242849        0.4566461152241261E-01
     3.432748408150759        0.4496198889899701E-01
     3.441100594058668        0.4426542048574868E-01
     3.449452779966578        0.4357483489844645E-01
     3.457804965874486        0.4289016135425998E-01
     3.466157151782396        0.4221132966682432E-01
     3.474509337690305        0.4153827024134576E-01
     3.482861523598215        0.4087091406969303E-01
     3.491213709506124        0.4020919272547400E-01
     3.499565895414034        0.3955303835912399E-01
     3.507918081321943        0.3890238369297332E-01
     3.516270267229852        0.3825716201632060E-01
     3.524622453137762        0.3761730718051032E-01
     3.532974639045671        0.3698275359397426E-01
     3.541326824953581        0.3635343621734926E-01
     3.549679010861490        0.3572929055852279E-01
     3.558031196769399        0.3511025266771747E-01
     3.566383382677309        0.3449625913257742E-01
     3.574735568585218        0.3388724707324219E-01
     3.583087754493127        0.3328315413746288E-01
     3.591439940401037        0.3268391849569130E-01
     3.599792126308946        0.3208947883619351E-01
     3.608144312216856        0.3149977436016991E-01
     3.616496498124765        0.3091474477688933E-01
     3.624848684032675        0.3033433029881164E-01
     3.633200869940584        0.2975847163676951E-01
     3.641553055848493        0.2918710999511408E-01
     3.649905241756402        0.2862018706689738E-01
     3.658257427664312        0.2805764502906779E-01
     3.666609613572221        0.2749942653765900E-01
     3.674961799480131        0.2694547472303691E-01
     3.683313985388040        0.2639573318511922E-01
     3.691666171295950        0.2585014598863154E-01
     3.700018357203859        0.2530865765837609E-01
     3.708370543111768        0.2477121317452098E-01
     3.716722729019678        0.2423775796788823E-01
     3.725074914927587        0.2370823791529930E-01
     3.733427100835497        0.2318259933489848E-01
     3.741779286743406        0.2266078898151503E-01
     3.750131472651315        0.2214275404204418E-01
     3.758483658559225        0.2162844213082823E-01
     3.766835844467134        0.2111780128509707E-01
     3.775188030375043        0.2061077996038973E-01
     3.783540216282953        0.2010732702601495E-01
     3.791892402190862        0.1960739176052879E-01
     3.800244588098772        0.1911092384723666E-01
     3.808596774006681        0.1861787336969873E-01
     3.816948959914590        0.1812819080729349E-01
     3.825301145822500        0.1764182703076590E-01
     3.833653331730409        0.1715873329781525E-01
     3.842005517638318        0.1667886124870172E-01
     3.850357703546228        0.1620216290187752E-01
     3.858709889454137        0.1572859064962504E-01
     3.867062075362047        0.1525809725375045E-01
     3.875414261269956        0.1479063584126553E-01
     3.883766447177865        0.1432615990010917E-01
     3.892118633085775        0.1386462327489143E-01
     3.900470818993684        0.1340598016264391E-01
     3.908823004901594        0.1295018510862601E-01
     3.917175190809503        0.1249719300212181E-01
     3.925527376717413        0.1204695907227515E-01
     3.933879562625322        0.1159943888394480E-01
     3.942231748533231        0.1115458833358552E-01
     3.950583934441140        0.1071236364513713E-01
     3.958936120349050        0.1027272136596707E-01
     3.967288306256959        0.9835618362805850E-02
     3.975640492164869        0.9401011817719953E-02
     3.983992678072778        0.8968859224104926E-02
     3.992344863980688        0.8539118382715179E-02
     4.000697049888597        0.8111747397644961E-02
     4.009049235796506        0.7686704672478604E-02
     4.017401421704416        0.7263948906318346E-02
     4.025753607612325        0.6843439089904938E-02
     4.034105793520235        0.6425134501747080E-02
     4.042457979428144        0.6008994704236923E-02
     4.050810165336054        0.5594979539979609E-02
     4.059162351243963        0.5183049127758357E-02
     4.067514537151872        0.4773163858900332E-02
     4.075866723059781        0.4365284393485045E-02
     4.084218908967690        0.3959371656608557E-02
     4.092571094875600        0.3555386826669999E-02
     4.100923280783509        0.3153291364340049E-02
     4.109275466691419        0.2753046961329525E-02
     4.117627652599328        0.2354615566002915E-02
     4.125979838507238        0.1957959372872606E-02
     4.134332024415147        0.1563040818801860E-02
     4.142684210323057        0.1169821651097934E-02
     4.151036396230966        0.7782665615535952E-03
     4.159388582138876        0.3883381602460187E-03
     4.167740768046785         0.000000000000000    
  0  3  2  0  0.000000   #orbital l, n, z, is_polarized, population
 500    0.7011251256195826E-02     3.498614376841718     # npts, delta, cutoff
     0.000000000000000       -0.1493860605030158    
    0.7011251256195826E-02   -0.1492672746275128    
    0.1402250251239165E-01   -0.1489103223445651    
    0.2103375376858748E-01   -0.1483156521711272    
    0.2804500502478331E-01   -0.1474836392424073    
    0.3505625628097913E-01   -0.1464148079527129    
    0.4206750753717496E-01   -0.1451098311939754    
    0.4907875879337079E-01   -0.1435695293714085    
    0.5609001004956661E-01   -0.1417948692088377    
    0.6310126130576243E-01   -0.1397869623503474    
    0.7011251256195826E-01   -0.1375470637651270    
    0.7712376381815408E-01   -0.1350765699631515    
    0.8413501507434992E-01   -0.1323770170301147    
    0.9114626633054575E-01   -0.1294500784907721    
    0.9815751758674157E-01   -0.1262975630105259    
    0.1051687688429374       -0.1229214119456714    
    0.1121800200991332       -0.1193236967532612    
    0.1191912713553290       -0.1155066162719596    
    0.1262025226115249       -0.1114724938856256    
    0.1332137738677207       -0.1072237745816197    
    0.1402250251239165       -0.1027630219160078    
    0.1472362763801124       -0.9809291489791759E-01