<preamble>

<basis_specs>
===============================================================================
S                    Z=  16    Mass=  32.070        Charge= 0.17977+309
Lmxo=2 Lmxkb= 1    BasisType=split      Semic=F
L=0  Nsemic=0  Cnfigmx=3
          i=1  nzeta=2  polorb=0  (3s)
            splnorm:   0.15000    
               vcte:    0.0000    
               rinn:    0.0000    
               qcoe:    0.0000    
               qyuk:    0.0000    
               qwid:   0.10000E-01
                rcs:    4.1677      3.4986    
            lambdas:    1.0000      1.0000    
L=1  Nsemic=0  Cnfigmx=3
          i=1  nzeta=2  polorb=1  (3p)  (to be polarized perturbatively)
            splnorm:   0.15000    
               vcte:    0.0000    
               rinn:    0.0000    
               qcoe:    0.0000    
               qyuk:    0.0000    
               qwid:   0.10000E-01
                rcs:    5.0905      3.8185    
            lambdas:    1.0000      1.0000    
L=2  Nsemic=0  Cnfigmx=3
          i=1  nzeta=0  polorb=0  (3d)  (perturbative polarization orbital) (from 3p)
-------------------------------------------------------------------------------
L=0  Nkbl=1  erefs: 0.17977+309
L=1  Nkbl=1  erefs: 0.17977+309
===============================================================================
</basis_specs>

<pseudopotential_header>
 S  ca nrl nc  
 ONCVPSP-3.2023-06-28Hamann's oncvpsp                        
 3s 2.00  r= 2.13/3p 4.00  r= 1.52/                                     3s:3p:
</pseudopotential_header>
</preamble>
S                             # Symbol
S                             # Label
   16                         # Atomic number
     6.00000000000                             # Valence charge
     32.0700000000        # Mass 
     77.2327046268        # Self energy 
   2   5                      # Lmax for basis, no. of nl orbitals 
   1   4                      # Lmax for projectors, no. of nl KB projectors
# PAOs:__________________________
  0  3  1  0  2.000000   #orbital l, n, z, is_polarized, population
 500    0.8352185907909388E-02     4.167740768046785     # npts, delta, cutoff
     0.000000000000000        0.1454495866203651    
    0.8352185907909388E-02    0.1455470217787848    
    0.1670437181581878E-01    0.1458400872756151    
    0.2505655772372816E-01    0.1463282648910741    
    0.3340874363163755E-01    0.1470111575273166    
    0.4176092953954694E-01    0.1478882098709663    
    0.5011311544745633E-01    0.1489587089852069    
    0.5846530135536572E-01    0.1502217850819088    
    0.6681748726327510E-01    0.1516764124644857    
    0.7516967317118449E-01    0.1533214106391679    
    0.8352185907909387E-01    0.1551554455928651    
    0.9187404498700327E-01    0.1571770312356845    
    0.1002262308949127        0.1593845310059686    
    0.1085784168028220        0.1617761596355083    
    0.1169306027107314        0.1643499850723620    
    0.1252827886186408        0.1671039305585066    
    0.1336349745265502        0.1700357768593396    
    0.1419871604344596        0.1731431646418459    
    0.1503393463423690        0.1764235969980580    
    0.1586915322502784        0.1798744421102415    
    0.1670437181581877        0.1834929360540651    
    0.1753959040660971        0.1872761857358311    
    0.1837480899740065        0.1912211719596805    
    0.1921002758819159        0.1953247526205240    
    0.2004524617898253        0.1995836660182910    
    0.2088046476977347        0.2039945342889483    
    0.2171568336056441        0.2085538669475880    
    0.2255090195135535        0.2132580645387677    
    0.2338612054214629        0.2181034223891422    
    0.2422133913293723        0.2230861344573177    
    0.2505655772372816        0.2282022972757571    
    0.2589177631451910        0.2334479139794400    
    0.2672699490531004        0.2388188984159186    
    0.2756221349610098        0.2443110793312994    
    0.2839743208689192        0.2499202046266259    
    0.2923265067768286        0.2556419456790519    
    0.3006786926847380        0.2614719017221613    
    0.3090308785926474        0.2674056042797120    
    0.3173830645005568        0.2734385216470783    
    0.3257352504084661        0.2795660634145979    
    0.3340874363163755        0.2857835850270464    
    0.3424396222242849        0.2920863923734198    
    0.3507918081321943        0.2984697464012228    
    0.3591439940401037        0.3049288677494658    
    0.3674961799480131        0.3114589413945758    
    0.3758483658559225        0.3180551213034718    
    0.3842005517638318        0.3247125350880747    
    0.3925527376717413        0.3314262886555653    
    0.4009049235796506        0.3381914708487668    
    0.4092571094875600        0.3450031580710756    
    0.4176092953954694        0.3518564188904284    
    0.4259614813033788        0.3587463186168945    
    0.4343136672112882        0.3656679238485301    
    0.4426658531191976        0.3726163069802467    
    0.4510180390271070        0.3795865506705433    
    0.4593702249350163        0.3865737522610409    
    0.4677224108429258        0.3935730281438789    
    0.4760745967508351        0.4005795180721725    
    0.4844267826587445        0.4075883894087932    
    0.4927789685666539        0.4145948413089597    
    0.5011311544745632        0.4215941088321512    
    0.5094833403824727        0.4285814669791033    
    0.5178355262903821        0.4355522346496971    
    0.5261877121982914        0.4425017785177944    
    0.5345398981062008        0.4494255168191327    
    0.5428920840141103        0.4563189230486399    
    0.5512442699220196        0.4631775295636191    
    0.5595964558299290        0.4699969310894836    
    0.5679486417378384        0.4767727881248200    
    0.5763008276457477        0.4835008302428079    
    0.5846530135536572        0.4901768592861180    
    0.5930051994615666        0.4967967524526696    
    0.6013573853694759        0.5033564652697070    
    0.6097095712773853        0.5098520344539483    
    0.6180617571852948        0.5162795806556179    
    0.6264139430932041        0.5226353110844694    
    0.6347661290011135        0.5289155220159951    
    0.6431183149090229        0.5351166011762434    
    0.6514705008169323        0.5412350300038549    
    0.6598226867248417        0.5472673857880623    
    0.6681748726327510        0.5532103436816403    
    0.6765270585406604        0.5590606785878998    
    0.6848792444485698        0.5648152669210686    
    0.6932314303564792        0.5704710882395175    
    0.7015836162643886        0.5760252267514906    
    0.7099358021722980        0.5814748726931860    
    0.7182879880802073        0.5868173235791528    
    0.7266401739881168        0.5920499853251858    
    0.7349923598960262        0.5971703732440439    
    0.7433445458039355        0.6021761129144554    
    0.7516967317118449        0.6070649409240857    
    0.7600489176197543        0.6118347054872414    
    0.7684011035276637        0.6164833669382477    
    0.7767532894355731        0.6210089981016321    
    0.7851054753434825        0.6254097845403012    
    0.7934576612513918        0.6296840246831168    
    0.8018098471593013        0.6338301298333781    
    0.8101620330672107        0.6378466240598325    
    0.8185142189751200        0.6417321439719903    
    0.8268664048830294        0.6454854383816367    
    0.8352185907909389        0.6491053678525283    
    0.8435707766988482        0.6525909041404012    
    0.8519229626067576        0.6559411295255143    
    0.8602751485146670        0.6591552360400477    
    0.8686273344225763        0.6622325245927736    
    0.8769795203304858        0.6651724039935409    
    0.8853317062383952        0.6679743898801516    
    0.8936838921463045        0.6706381035503263    
    0.9020360780542139        0.6731632707015373    
    0.9103882639621234        0.6755497200815342    
    0.9187404498700327        0.6777973820524726    
    0.9270926357779421        0.6799062870716215    
    0.9354448216858515        0.6818765640916873    
    0.9437970075937608        0.6837084388838176    
    0.9521491935016703        0.6854022322864393    
    0.9605013794095796        0.6869583583830966    
    0.9688535653174890        0.6883773226125134    
    0.9772057512253984        0.6896597198141126    
    0.9855579371333077        0.6908062322122961    
    0.9939101230412172        0.6918176273427813    
     1.002262308949126        0.6926947559243097    
     1.010614494857036        0.6934385496790872    
     1.018966680764945        0.6940500191052993    
     1.027318866672855        0.6945302512050641    
     1.035671052580764        0.6948804071711906    
     1.044023238488674        0.6951017200360921    
     1.052375424396583        0.6951954922862311    
     1.060727610304492        0.6951630934454303    
     1.069079796212402        0.6950059576303793    
     1.077431982120311        0.6947255810816664    
     1.085784168028221        0.6943235196736258    
     1.094136353936130        0.6938013864062640    
     1.102488539844039        0.6931608488825154    
     1.110840725751949        0.6924036267740321    
     1.119192911659858        0.6915314892786861    
     1.127545097567767        0.6905462525729185    
     1.135897283475677        0.6894497772620221    
     1.144249469383586        0.6882439658314180    
     1.152601655291495        0.6869307601019177    
     1.160953841199405        0.6855121386919207    
     1.169306027107314        0.6839901144894485    
     1.177658213015224        0.6823667321368405    
     1.186010398923133        0.6806440655309066    
     1.194362584831042        0.6788242153404279    
     1.202714770738952        0.6769093064725091    
     1.211066956646861        0.6749014860511077    
     1.219419142554771        0.6728029203393898    
     1.227771328462680        0.6706157917249077    
     1.236123514370590        0.6683422993405407    
     1.244475700278499        0.6659846571327042    
     1.252827886186408        0.6635450855478292    
     1.261180072094318        0.6610258095369981    
     1.269532258002227        0.6584290624866359    
     1.277884443910136        0.6557570833116052    
     1.286236629818046        0.6530121111361631    
     1.294588815725955        0.6501963840162837    
     1.302941001633865        0.6473121376786350    
     1.311293187541774        0.6443616031262666    
     1.319645373449683        0.6413470046632758    
     1.327997559357593        0.6382705580867833    
     1.336349745265502        0.6351344688452808    
     1.344701931173411        0.6319409302652029    
     1.353054117081321        0.6286921218328394    
     1.361406302989230        0.6253902075326807    
     1.369758488897140        0.6220373342432017    
     1.378110674805049        0.6186356301909925    
     1.386462860712958        0.6151872034640496    
     1.394815046620868        0.6116941405849493    
     1.403167232528777        0.6081585051445368    
     1.411519418436687        0.6045823364966587    
     1.419871604344596        0.6009676485143947    
     1.428223790252505        0.5973164284081199    
     1.436575976160415        0.5936306356056834    
     1.444928162068324        0.5899122006948343    
     1.453280347976234        0.5861630244280103    
     1.461632533884143        0.5823849767894339    
     1.469984719792052        0.5785798961244559    
     1.478336905699962        0.5747495883309039    
     1.486689091607871        0.5708958261122173    
     1.495041277515780        0.5670203482919292    
     1.503393463423690        0.5631248591891304    
     1.511745649331599        0.5592110280543083    
     1.520097835239509        0.5552804885649765    
     1.528450021147418        0.5513348383804345    
     1.536802207055327        0.5473756387547942    
     1.545154392963237        0.5434044142075544    
     1.553506578871146        0.5394226522506440    
     1.561858764779056        0.5354318031711099    
     1.570210950686965        0.5314332798682340    
     1.578563136594874        0.5274284577440160    
     1.586915322502784        0.5234186746458795    
     1.595267508410693        0.5194052308601729    
     1.603619694318603        0.5153893891553888    
     1.611971880226512        0.5113723748734348    
     1.620324066134421        0.5073553760678271    
     1.628676252042331        0.5033395436870735    
     1.637028437950240        0.4993259918018015    
     1.645380623858149        0.4953157978741958    
     1.653732809766059        0.4913100030677887    
     1.662084995673968        0.4873096125963645    
     1.670437181581878        0.4833155961099121    
     1.678789367489787        0.4793288881160546    
     1.687141553397696        0.4753503884353469    
     1.695493739305606        0.4713809626882438    
     1.703845925213515        0.4674214428124702    
     1.712198111121425        0.4634726276084827    
     1.720550297029334        0.4595352833113888    
     1.728902482937243        0.4556101441876668    
     1.737254668845153        0.4516979131542833    
     1.745606854753062        0.4477992624190290    
     1.753959040660972        0.4439148341396062    
     1.762311226568881        0.4400452410998282    
     1.770663412476790        0.4361910674013530    
     1.779015598384700        0.4323528691684136    
     1.787367784292609        0.4285311752645125    
     1.795719970200518        0.4247264880186198    
     1.804072156108428        0.4209392839592409    
     1.812424342016337        0.4171700145549470    
     1.820776527924247        0.4134191069590041    
     1.829128713832156        0.4096869647566631    
     1.837480899740065        0.4059739687137129    
     1.845833085647975        0.4022804775240196    
     1.854185271555884        0.3986068285547987    
     1.862537457463794        0.3949533385882690    
     1.870889643371703        0.3913203045574059    
     1.879241829279612        0.3877080042752467    
     1.887594015187522        0.3841166971555343    
     1.895946201095431        0.3805466249235808    
     1.904298387003341        0.3769980123163523    
     1.912650572911250        0.3734710677699058    
     1.921002758819159        0.3699659840932581    
     1.929354944727069        0.3664829391277857    
     1.937707130634978        0.3630220963905308    
     1.946059316542887        0.3595836057006843    
     1.954411502450797        0.3561676037884588    
     1.962763688358706        0.3527742148850275    
     1.971115874266615        0.3494035512929709    
     1.979468060174525        0.3460557139365640    
     1.987820246082434        0.3427307928909273    
     1.996172431990344        0.3394288678896576    
     2.004524617898253        0.3361500088103169    
     2.012876803806162        0.3328942761373375    
     2.021228989714072        0.3296617214018012    
     2.029581175621981        0.3264523875982230    
     2.037933361529891        0.3232663095775015    
     2.046285547437800        0.3201035144155174    
     2.054637733345710        0.3169640217596973    
     2.062989919253619        0.3138478441498744    
     2.071342105161528        0.3107549873145019    
     2.079694291069438        0.3076854504471112    
     2.088046476977347        0.3046392264775740    
     2.096398662885256        0.3016163021828071    
     2.104750848793166        0.2986166586021660    
     2.113103034701075        0.2956402710113924    
     2.121455220608985        0.2926871094467102    
     2.129807406516894        0.2897571382179437    
     2.138159592424803        0.2868503164619329    
     2.146511778332713        0.2839665979390679    
     2.154863964240622        0.2811059316994907    
     2.163216150148532        0.2782682620022743    
     2.171568336056441        0.2754535285835252    
     2.179920521964350        0.2726616667941535    
     2.188272707872259        0.2698926077991134    
     2.196624893780169        0.2671462787366573    
     2.204977079688078        0.2644226029206185    
     2.213329265595988        0.2617214999272443    
     2.221681451503897        0.2590428858024535    
     2.230033637411807        0.2563866731793164    
     2.238385823319716        0.2537527714724526    
     2.246738009227625        0.2511410869947341    
     2.255090195135535        0.2485515231157434    
     2.263442381043444        0.2459839803783229    
     2.271794566951354        0.2434383566405521    
     2.280146752859263        0.2409145472012518    
     2.288498938767172        0.2384124449226252    
     2.296851124675082        0.2359319403514669    
     2.305203310582991        0.2334729218340740    
     2.313555496490900        0.2310352756287510    
     2.321907682398810        0.2286188860144700    
     2.330259868306719        0.2262236353961549    
     2.338612054214629        0.2238494044065782    
     2.346964240122538        0.2214960720049959    
     2.355316426030448        0.2191635155726282    
     2.363668611938357        0.2168516110050450    
     2.372020797846266        0.2145602328015379    
     2.380372983754176        0.2122892541516371    
     2.388725169662085        0.2100385470187419    
     2.397077355569994        0.2078079822210284    
     2.405429541477904        0.2055974295096614    
     2.413781727385813        0.2034067576444575    
     2.422133913293723        0.2012358344669779    
     2.430486099201632        0.1990845269711671    
     2.438838285109541        0.1969527013716640    
     2.447190471017451        0.1948402231697422    
     2.455542656925360        0.1927469572170327    
     2.463894842833270        0.1906727677770328    
     2.472247028741179        0.1886175185845528    
     2.480599214649088        0.1865810729030446    
     2.488951400556997        0.1845632935799600    
     2.497303586464907        0.1825640431001420    
     2.505655772372816        0.1805831836373818    
     2.514007958280726        0.1786205771040940    
     2.522360144188635        0.1766760851992117    
     2.530712330096545        0.1747495694544138    
     2.539064516004454        0.1728408912786168    
     2.547416701912363        0.1709499120008720    
     2.555768887820273        0.1690764929116506    
     2.564121073728182        0.1672204953026608    
     2.572473259636092        0.1653817805051150    
     2.580825445544001        0.1635602099265888    
     2.589177631451910        0.1617556450864450    
     2.597529817359820        0.1599679476499654    
     2.605882003267729        0.1581969794610994    
     2.614234189175638        0.1564426025739688    
     2.622586375083548        0.1547046792830993    
     2.630938560991457        0.1529830721525147    
     2.639290746899367        0.1512776440435964    
     2.647642932807276        0.1495882581418502    
     2.655995118715186        0.1479147779825403    
     2.664347304623095        0.1462570674753256    
     2.672699490531004        0.1446149909277971    
     2.681051676438913        0.1429884130680523    
     2.689403862346823        0.1413771990662667    
     2.697756048254732        0.1397812145553909    
     2.706108234162642        0.1382003256508691    
     2.714460420070551        0.1366343989695133    
     2.722812605978461        0.1350833016474870    
     2.731164791886370        0.1335469013575263    
     2.739516977794279        0.1320250663252910    
     2.747869163702189        0.1305176653449748    
     2.756221349610098        0.1290245677941268    
     2.764573535518008        0.1275456436478119    
     2.772925721425917        0.1260807634919940    
     2.781277907333826        0.1246297985362744    
     2.789630093241735        0.1231926206259302    
     2.797982279149645        0.1217691022533811    
     2.806334465057554        0.1203591165689643    
     2.814686650965464        0.1189625373911497    
     2.823038836873373        0.1175792392161320    
     2.831391022781283        0.1162090972269328    
     2.839743208689192        0.1148519873018882    
     2.848095394597101        0.1135077860226473    
     2.856447580505011        0.1121763706816232    
     2.864799766412920        0.1108576192890206    
     2.873151952320829        0.1095514105793200    
     2.881504138228739        0.1082576240173312    
     2.889856324136648        0.1069761398038024    
     2.898208510044558        0.1057068388805683    
     2.906560695952467        0.1044496029353492    
     2.914912881860376        0.1032043144060789    
     2.923265067768286        0.1019708564848843    
     2.931617253676195        0.1007491131216506    
     2.939969439584105        0.9953896902729499E-01
     2.948321625492014        0.9834030967661969E-01
     2.956673811399924        0.9715302131086737E-01
     2.965025997307833        0.9597699093991098E-01
     2.973378183215742        0.9481210634419759E-01
     2.981730369123651        0.9365825607632348E-01
     2.990082555031561        0.9251532946234568E-01
     2.998434740939470        0.9138321660281221E-01
     3.006786926847380        0.9026180837348853E-01
     3.015139112755289        0.8915099642588983E-01
     3.023491298663199        0.8805067318749117E-01
     3.031843484571108        0.8696073186173370E-01
     3.040195670479017        0.8588106642775671E-01
     3.048547856386927        0.8481157163997227E-01
     3.056900042294836        0.8375214302735583E-01
     3.065252228202745        0.8270267689255856E-01
     3.073604414110655        0.8166307031081745E-01
     3.081956600018564        0.8063322112864178E-01
     3.090308785926474        0.7961302796237901E-01
     3.098660971834383        0.7860239019653478E-01
     3.107013157742292        0.7760120798195921E-01
     3.115365343650202        0.7660938223382997E-01
     3.123717529558111        0.7562681462954120E-01
     3.132069715466021        0.7465340760637899E-01
     3.140421901373930        0.7368906435907821E-01
     3.148774087281839        0.7273368883724043E-01
     3.157126273189749        0.7178718574258647E-01
     3.165478459097658        0.7084946052614477E-01
     3.173830645005567        0.6992041938525333E-01
     3.182182830913477        0.6899996926047339E-01
     3.190535016821386        0.6808801783239055E-01
     3.198887202729296        0.6718447351827803E-01
     3.207239388637205        0.6628924546872046E-01
     3.215591574545114        0.6540224356407578E-01
     3.223943760453024        0.6452337841087358E-01
     3.232295946360933        0.6365256133812369E-01
     3.240648132268843        0.6278970439351123E-01
     3.249000318176752        0.6193472033957154E-01
     3.257352504084661        0.6108752264972552E-01
     3.265704689992571        0.6024802550427198E-01
     3.274056875900480        0.5941614378630971E-01
     3.282409061808389        0.5859179307756711E-01
     3.290761247716299        0.5777488965422621E-01
     3.299113433624208        0.5696535048262879E-01
     3.307465619532118        0.5616309321496105E-01
     3.315817805440027        0.5536803618485132E-01
     3.324169991347937        0.5458009840297582E-01
     3.332522177255846        0.5379919955256229E-01
     3.340874363163755        0.5302525998487508E-01
     3.349226549071665        0.5225820071465966E-01
     3.357578734979574        0.5149794341552130E-01
     3.365930920887483        0.5074441041532296E-01
     3.374283106795393        0.4999752469149688E-01
     3.382635292703302        0.4925720986634909E-01
     3.390987478611212        0.4852339020233621E-01
     3.399339664519121        0.4779599059728889E-01
     3.407691850427030        0.4707493657966458E-01
     3.416044036334940        0.4636015430372654E-01
     3.424396222242849        0.4565157054472623E-01
     3.432748408150759        0.4494911269406307E-01
     3.441100594058668        0.4425270875443205E-01
     3.449452779966578        0.4356228733493274E-01
     3.457804965874486        0.4287777764621706E-01
     3.466157151782396        0.4219910949557253E-01
     3.474509337690305        0.4152621328202216E-01
     3.482861523598215        0.4085901999141566E-01
     3.491213709506124        0.4019746119149026E-01
     3.499565895414034        0.3954146902697657E-01
     3.507918081321943        0.3889097621465001E-01
     3.516270267229852        0.3824591603840428E-01
     3.524622453137762        0.3760622234432388E-01
     3.532974639045671        0.3697182953573243E-01
     3.541326824953581        0.3634267256829241E-01
     3.549679010861490        0.3571868694505759E-01
     3.558031196769399        0.3509980871155261E-01
     3.566383382677309        0.3448597445085761E-01
     3.574735568585218        0.3387712127867495E-01
     3.583087754493127        0.3327318683844969E-01
     3.591439940401037        0.3267410929645169E-01
     3.599792126308946        0.3207982733688783E-01
     3.608144312216856        0.3149028015701930E-01
     3.616496498124765        0.3090540746229311E-01
     3.624848684032675        0.3032514946146336E-01
     3.633200869940584        0.2974944686176868E-01
     3.641553055848493        0.2917824086407671E-01
     3.649905241756402        0.2861147315806388E-01
     3.658257427664312        0.2804908591740854E-01
     3.666609613572221        0.2749102179497747E-01
     3.674961799480131        0.2693722391807066E-01
     3.683313985388040        0.2638763588363859E-01
     3.691666171295950        0.2584220175353606E-01
     3.700018357203859        0.2530086604978875E-01
     3.708370543111768        0.2476357374988027E-01
     3.716722729019678        0.2423027028203806E-01
     3.725074914927587        0.2370090152057681E-01
     3.733427100835497        0.2317541378121973E-01
     3.741779286743406        0.2265375381645862E-01
     3.750131472651315        0.2213586881093287E-01
     3.758483658559225        0.2162170637680848E-01
     3.766835844467134        0.2111121454921668E-01
     3.775188030375043        0.2060434178167340E-01
     3.783540216282953        0.2010103694153795E-01
     3.791892402190862        0.1960124930548878E-01
     3.800244588098772        0.1910492855502346E-01
     3.808596774006681        0.1861202477196239E-01
     3.816948959914590        0.1812248843401039E-01
     3.825301145822500        0.1763627041030306E-01
     3.833653331730409        0.1715332195699290E-01
     3.842005517638318        0.1667359471285392E-01
     3.850357703546228        0.1619704069491125E-01
     3.858709889454137        0.1572361229407739E-01
     3.867062075362047        0.1525326227084408E-01
     3.875414261269956        0.1478594375096256E-01
     3.883766447177865        0.1432161022116333E-01
     3.892118633085775        0.1386021552489847E-01
     3.900470818993684        0.1340171385809053E-01
     3.908823004901594        0.1294605976493704E-01
     3.917175190809503        0.1249320813370587E-01
     3.925527376717413        0.1204311419256870E-01
     3.933879562625322        0.1159573350545461E-01
     3.942231748533231        0.1115102196792965E-01
     3.950583934441140        0.1070893580308433E-01
     3.958936120349050        0.1026943155747468E-01
     3.967288306256959        0.9832466097056269E-02
     3.975640492164869        0.9397996603155552E-02
     3.983992678072778        0.8965980568461530E-02
     3.992344863980688        0.8536375793054137E-02
     4.000697049888597        0.8109140380383763E-02
     4.009049235796506        0.7684232733420079E-02
     4.017401421704416        0.7261611550678486E-02
     4.025753607612325        0.6841235822339325E-02
     4.034105793520235        0.6423064826375962E-02
     4.042457979428144        0.6007058124668721E-02
     4.050810165336054        0.5593175559333949E-02
     4.059162351243963        0.5181377248686498E-02
     4.067514537151872        0.4771623583605081E-02
     4.075866723059781        0.4363875223739203E-02
     4.084218908967690        0.3958093093772075E-02
     4.092571094875600        0.3554238371700727E-02
     4.100923280783509        0.3152272517824209E-02
     4.109275466691419        0.2752157223480396E-02
     4.117627652599328        0.2353854436677093E-02
     4.125979838507238        0.1957326351580621E-02
     4.134332024415147        0.1562535404717480E-02
     4.142684210323057        0.1169443342743054E-02
     4.151036396230966        0.7780148577481971E-03
     4.159388582138876        0.3882125593084267E-03
     4.167740768046785         0.000000000000000    
  0  3  2  0  0.000000   #orbital l, n, z, is_polarized, population
 500    0.7011251256195826E-02     3.498614376841718     # npts, delta, cutoff
     0.000000000000000       -0.4682141222701815E-01
    0.7011251256195826E-02   -0.4671747902177029E-01
    0.1402250251239165E-01   -0.4640447663671770E-01
    0.2103375376858748E-01   -0.4588300373171672E-01
    0.2804500502478331E-01   -0.4515335689846794E-01
    0.3505625628097913E-01   -0.4421595101237704E-01
    0.4206750753717496E-01   -0.4307131893449320E-01
    0.4907875879337079E-01   -0.4172011110661243E-01
    0.5609001004956661E-01   -0.4016309505457909E-01
    0.6310126130576243E-01   -0.3840115480193181E-01
    0.7011251256195826E-01   -0.3643529019483590E-01
    0.7712376381815408E-01   -0.3426661613909463E-01
    0.8413501507434992E-01   -0.3189636175006594E-01
    0.9114626633054575E-01   -0.2932586941637366E-01
    0.9815751758674157E-01   -0.2655659377839109E-01
    0.1051687688429374       -0.2359010062254041E-01
    0.1121800200991332       -0.2042806569254997E-01
    0.1191912713553290       -0.1707227341887153E-01
    0.1262025226115249       -0.1352461556755044E-01
    0.1332137738677207       -0.9787089809910351E-02
    0.1402250251239165       -0.5861798214487531E-02
    0.1472362763801124       -0.1750945662722667E-02