<?xml version="1.0" encoding="UTF-8" ?>
<psml version="1.1" energy_unit="hartree" length_unit="bohr"
 uuid="3b9b7bf0-23d2-11e8-66e2-7f803fcbcc78"
 xmlns="http://esl.cecam.org/PSML/ns/1.1">
<provenance creator="ONCVPSP-3.3.0+psml-3.3.0-73 (scalar-relativistic)"
 date="2018-03-09">
<annotation action="semilocal-pseudopotential-generation"
 action-cont="projectors-generation" />
<input-file name="oncvpsp-input">
<![CDATA[# atsym z nc nv iexc psfile
S 16 3 2 -001012 upf
# n l f
1 0 2.0
2 0 2.0
2 1 6.0
3 0 2.0
3 1 4.0
# lmax
2
# l rc ep ncon nbas qcut
0 1.45 0.0 4 9 6.5
1 1.45 0.0 4 9 7.6
2 1.7 0.15 4 9 7.6
# lloc lpopt rc5 dvloc0
4 5 1.4 0.0
# l nproj debl
0 2 2.0
1 2 2.0
2 2 1.0
# icmod fcfact rcfact
3 6.0 1.25
# epsh1 epsh2 depsh
-12.0 12.0 0.02
# rlmax drl
6.0 0.01
 0
]]>
</input-file>
</provenance>
<pseudo-atom-spec atomic-label="S" atomic-number="16" z-pseudo="6"
 flavor="Hamann&apos;s oncvpsp" relativity="scalar" spin-dft="no"
 core-corrections="yes">
<annotation pseudo-energy="-10.1388204797" />
<exchange-correlation>
<annotation oncvpsp-xc-code="-1012" oncvpsp-xc-type="libxc-interface" />
<libxc-info number-of-functionals="2">
<functional name="Slater exchange (LDA)" type="exchange" id="1" />
<functional name="Perdew &amp; Wang (LDA)" type="correlation" id="12" />
</libxc-info>
</exchange-correlation>
<valence-configuration total-valence-charge="6">
<shell n="3" l="s" occupation="2" />
<shell n="3" l="p" occupation="4" />
</valence-configuration>
</pseudo-atom-spec>
<grid npts="457">
<annotation type="sampled from oncvpsp log grid"
 recipe="r(i:1..N) = r1*exp(a*(i-1)) + r=0; resampled"
 recipe-cont="r1: scale; a: step" scale="0.312500000000E-04"
 step="0.119285708653E-01" delta="0.500000000000E-02" rmax="44.0674949757" />
<grid-data>
  0.000000000000E+00  5.032089401363E-03  1.005120367503E-02  1.507840828192E-02
  2.031740843734E-02  2.548578698111E-02  3.084510470868E-02  3.601910451176E-02
  4.106941804742E-02  4.627257563705E-02  5.151672975532E-02  5.667511193686E-02
  6.235000413091E-02  6.777976739691E-02  7.280867859944E-02  7.821070922764E-02
  8.401354282973E-02  8.917679538664E-02  9.465736793826E-02  1.004747621413E-01
  1.066496781734E-01  1.118617474217E-01  1.173285353557E-01  1.230624903151E-01
  1.290766690016E-01  1.353847662102E-01  1.420011460131E-01  1.471747771426E-01
  1.525369029415E-01  1.580943909733E-01  1.638543590123E-01  1.698241841602E-01
  1.760115122937E-01  1.824242678575E-01  1.890706640132E-01  1.959592131586E-01
  2.030987378299E-01  2.104983820012E-01  2.155806549362E-01  2.207856342690E-01
  2.261162826228E-01  2.315756341504E-01  2.371667962613E-01  2.428929513903E-01
  2.487573588086E-01  2.547633564797E-01  2.609143629586E-01  2.672138793378E-01
  2.736654912406E-01  2.802728708611E-01  2.870397790552E-01  2.939700674807E-01
  3.010676807899E-01  3.083366588749E-01  3.157811391668E-01  3.234053589908E-01
  3.312136579783E-01  3.392104805365E-01  3.474003783786E-01  3.557880131142E-01
  3.643781589028E-01  3.731757051713E-01  3.821856593970E-01  3.914131499575E-01
  4.008634290501E-01  4.105418756810E-01  4.204539987275E-01  4.254994467122E-01
  4.306054400728E-01  4.357727053536E-01  4.410019778179E-01  4.462940015517E-01
  4.516495295703E-01  4.570693239252E-01  4.625541558123E-01  4.681048056820E-01
  4.737220633502E-01  4.794067281104E-01  4.851596088477E-01  4.909815241539E-01
  4.968733024437E-01  5.028357820731E-01  5.088698114579E-01  5.149762491954E-01
  5.211559641858E-01  5.274098357560E-01  5.337387537851E-01  5.401436188305E-01
  5.466253422565E-01  5.531848463636E-01  5.598230645199E-01  5.665409412942E-01
  5.733394325897E-01  5.802195057808E-01  5.871821398501E-01  5.942283255283E-01
  6.013590654347E-01  6.085753742199E-01  6.158782787105E-01  6.232688180550E-01
  6.307480438717E-01  6.383170203982E-01  6.459768246429E-01  6.537285465387E-01
  6.615732890971E-01  6.695121685663E-01  6.775463145891E-01  6.856768703642E-01
  6.939049928085E-01  7.022318527222E-01  7.106586349549E-01  7.191865385744E-01
  7.278167770372E-01  7.365505783617E-01  7.453891853020E-01  7.543338555257E-01
  7.633858617920E-01  7.725464921335E-01  7.818170500391E-01  7.911988546395E-01
  8.006932408952E-01  8.103015597860E-01  8.200251785034E-01  8.298654806454E-01
  8.398238664132E-01  8.499017528101E-01  8.601005738439E-01  8.704217807300E-01
  8.808668420987E-01  8.914372442039E-01  9.021344911344E-01  9.129601050280E-01
  9.239156262883E-01  9.350026138038E-01  9.462226451694E-01  9.575773169115E-01
  9.690682447144E-01  9.806970636510E-01  9.924654284148E-01  1.004375013556E+00
  1.016427513718E+00  1.028624643883E+00  1.040968139610E+00  1.053459757285E+00
  1.066101274372E+00  1.078894489665E+00  1.091841223541E+00  1.104943318223E+00
  1.118202638042E+00  1.131621069699E+00  1.145200522535E+00  1.158942928805E+00
  1.172850243951E+00  1.186924446878E+00  1.201167540241E+00  1.215581550724E+00
  1.230168529332E+00  1.244930551684E+00  1.259869718305E+00  1.274988154924E+00
  1.290288012783E+00  1.305771468937E+00  1.321440726564E+00  1.337298015283E+00
  1.353345591466E+00  1.369585738564E+00  1.386020767427E+00  1.402653016636E+00
  1.419484852835E+00  1.436518671069E+00  1.453756895122E+00  1.471201977864E+00
  1.488856401598E+00  1.506722678417E+00  1.524803350558E+00  1.543100990765E+00
  1.561618202654E+00  1.580357621086E+00  1.599321912539E+00  1.618513775489E+00
  1.637935940795E+00  1.657591172085E+00  1.677482266150E+00  1.697612053344E+00
  1.717983397984E+00  1.738599198760E+00  1.759462389145E+00  1.780575937814E+00
  1.801942849068E+00  1.823566163257E+00  1.845448957216E+00  1.867594344703E+00
  1.890005476839E+00  1.912685542561E+00  1.935637769072E+00  1.958865422301E+00
  1.982371807368E+00  2.006160269057E+00  2.030234192286E+00  2.054597002593E+00
  2.079252166624E+00  2.104203192624E+00  2.129453630935E+00  2.155007074506E+00
  2.180867159400E+00  2.207037565313E+00  2.233522016097E+00  2.260324280290E+00
  2.287448171654E+00  2.314897549713E+00  2.342676320310E+00  2.370788436154E+00
  2.399237897388E+00  2.428028752156E+00  2.457165097182E+00  2.486651078348E+00
  2.516490891288E+00  2.546688781984E+00  2.577249047368E+00  2.608176035936E+00
  2.639474148367E+00  2.671147838148E+00  2.703201612206E+00  2.735640031552E+00
  2.768467711931E+00  2.801689324474E+00  2.835309596367E+00  2.869333311524E+00
  2.903765311262E+00  2.938610494997E+00  2.973873820937E+00  3.009560306789E+00
  3.045675030470E+00  3.082223130836E+00  3.119209808406E+00  3.156640326107E+00
  3.194520010020E+00  3.232854250140E+00  3.271648501142E+00  3.310908283155E+00
  3.350639182553E+00  3.390846852744E+00  3.431537014977E+00  3.472715459157E+00
  3.514388044666E+00  3.556560701202E+00  3.599239429617E+00  3.642430302772E+00
  3.686139466406E+00  3.730373140002E+00  3.775137617682E+00  3.820439269095E+00
  3.866284540324E+00  3.912679954808E+00  3.959632114265E+00  4.007147699637E+00
  4.055233472032E+00  4.103896273697E+00  4.153143028981E+00  4.202980745329E+00
  4.253416514273E+00  4.304457512444E+00  4.356111002593E+00  4.408384334624E+00
  4.461284946640E+00  4.514820366000E+00  4.568998210392E+00  4.623826188916E+00
  4.679312103183E+00  4.735463848421E+00  4.792289414603E+00  4.849796887578E+00
  4.907994450229E+00  4.966890383631E+00  5.026493068235E+00  5.086810985054E+00
  5.147852716874E+00  5.209626949477E+00  5.272142472871E+00  5.335408182545E+00
  5.399433080736E+00  5.464226277704E+00  5.529796993037E+00  5.596154556953E+00
  5.663308411637E+00  5.731268112576E+00  5.800043329927E+00  5.869643849887E+00
  5.940079576085E+00  6.011360530998E+00  6.083496857370E+00  6.156498819659E+00
  6.230376805494E+00  6.305141327160E+00  6.380803023086E+00  6.457372659363E+00
  6.534861131276E+00  6.613279464851E+00  6.692638818429E+00  6.772950484250E+00
  6.854225890061E+00  6.936476600742E+00  7.019714319951E+00  7.103950891790E+00
  7.189198302492E+00  7.275468682122E+00  7.362774306307E+00  7.451127597983E+00
  7.540541129159E+00  7.631027622709E+00  7.722599954181E+00  7.815271153631E+00
  7.909054407475E+00  8.003963060365E+00  8.100010617089E+00  8.197210744494E+00
  8.295577273428E+00  8.395124200709E+00  8.495865691118E+00  8.597816079411E+00
  8.700989872364E+00  8.805401750832E+00  8.911066571842E+00  9.017999370705E+00
  9.126215363153E+00  9.235729947511E+00  9.346558706881E+00  9.458717411364E+00
  9.572222020300E+00  9.687088684543E+00  9.803333748758E+00  9.920973753743E+00
  1.004002543879E+01  1.016050574405E+01  1.028243181298E+01  1.040582099474E+01
  1.053069084667E+01  1.065705913683E+01  1.078494384648E+01  1.091436317263E+01
  1.104533553071E+01  1.117787955707E+01  1.131201411176E+01  1.144775828110E+01
  1.158513138047E+01  1.172415295704E+01  1.186484279252E+01  1.200722090603E+01
  1.215130755691E+01  1.229712324759E+01  1.244468872656E+01  1.259402499128E+01
  1.274515329117E+01  1.289809513067E+01  1.305287227224E+01  1.320950673950E+01
  1.336802082038E+01  1.352843707022E+01  1.369077831507E+01  1.385506765485E+01
  1.402132846670E+01  1.418958440830E+01  1.435985942120E+01  1.453217773426E+01
  1.470656386707E+01  1.488304263347E+01  1.506163914508E+01  1.524237881482E+01
  1.542528736059E+01  1.561039080892E+01  1.579771549863E+01  1.598728808461E+01
  1.617913554163E+01  1.637328516813E+01  1.656976459015E+01  1.676860176523E+01
  1.696982498641E+01  1.717346288625E+01  1.737954444088E+01  1.758809897417E+01
  1.779915616186E+01  1.801274603580E+01  1.822889898823E+01  1.844764577609E+01
  1.866901752541E+01  1.889304573571E+01  1.911976228454E+01  1.934919943195E+01
  1.958138982514E+01  1.981636650304E+01  2.005416290108E+01  2.029481285589E+01
  2.053835061016E+01  2.078481081748E+01  2.103422854729E+01  2.128663928986E+01
  2.154207896134E+01  2.180058390887E+01  2.206219091578E+01  2.232693720677E+01
  2.259486045325E+01  2.286599877869E+01  2.314039076403E+01  2.341807545320E+01
  2.369909235864E+01  2.398348146694E+01  2.427128324455E+01  2.456253864348E+01
  2.485728910720E+01  2.515557657649E+01  2.545744349541E+01  2.576293281735E+01
  2.607208801116E+01  2.638495306729E+01  2.670157250410E+01  2.702199137415E+01
  2.734625527064E+01  2.767441033389E+01  2.800650325790E+01  2.834258129699E+01
  2.868269227255E+01  2.902688457982E+01  2.937520719478E+01  2.972770968112E+01
  3.008444219729E+01  3.044545550366E+01  3.081080096970E+01  3.118053058134E+01
  3.155469694832E+01  3.193335331170E+01  3.231655355144E+01  3.270435219405E+01
  3.309680442038E+01  3.349396607343E+01  3.389589366631E+01  3.430264439030E+01
  3.471427612299E+01  3.513084743646E+01  3.555241760570E+01  3.597904661697E+01
  3.641079517637E+01  3.684772471849E+01  3.728989741511E+01  3.773737618409E+01
  3.819022469830E+01  3.864850739468E+01  3.911228948342E+01  3.958163695722E+01
  4.005661660071E+01  4.053729599991E+01  4.102374355191E+01  4.151602847454E+01
  4.201422081623E+01  4.251839146603E+01  4.302861216362E+01  4.354495550958E+01
  4.406749497570E+01
</grid-data>
</grid>
<valence-charge total-charge="6" is-unscreening-charge="yes"
 rescaled-to-z-pseudo="no">
<radfunc>
<data npts="457">
  1.159902901835E-02  1.166163833825E-02  1.184884976587E-02  1.216135345587E-02
  1.262028639856E-02  1.320652920959E-02  1.395476440242E-02  1.481304117712E-02
  1.577997400989E-02  1.691010343573E-02  1.818722571117E-02  1.957930854735E-02
  2.126720251456E-02  2.303644800874E-02  2.481043223398E-02  2.686194293232E-02
  2.923515420304E-02  3.149543828604E-02  3.404892587053E-02  3.693454619269E-02
  4.019661461092E-02  4.311101422285E-02  4.632759870193E-02  4.987869292358E-02
  5.380025608896E-02  5.813231711894E-02  6.291946473206E-02  6.683816435265E-02
  7.106374035536E-02  7.562121804006E-02  8.053777355227E-02  8.584292628104E-02
  9.156874770823E-02  9.775008761559E-02  1.044248184328E-01  1.116340983207E-01
  1.194226533070E-01  1.278390784092E-01  1.338247287282E-01  1.401295412686E-01
  1.467711982176E-01  1.537683685736E-01  1.611407562466E-01  1.689091487774E-01
  1.770954663105E-01  1.857228103748E-01  1.948155119293E-01  2.043991780274E-01
  2.145007363281E-01  2.251484765450E-01  2.363720877692E-01  2.482026904274E-01
  2.606728614448E-01  2.738166509659E-01  2.876695887572E-01  3.022686781563E-01
  3.176523751607E-01  3.338605499555E-01  3.509344278696E-01  3.689165064268E-01
  3.878504448291E-01  4.077809218734E-01  4.287534579772E-01  4.508141966745E-01
  4.740096406618E-01  4.983863372244E-01  5.239905076946E-01  5.372671457264E-01
  5.508676154803E-01  5.647973996260E-01  5.790618671921E-01  5.936662539432E-01
  6.086156415083E-01  6.239149352254E-01  6.395688406684E-01  6.555818388268E-01
  6.719581599082E-01  6.887017557426E-01  7.058162707671E-01  7.233050115760E-01
  7.411709150282E-01  7.594165149049E-01  7.780439071230E-01  7.970547135101E-01
  8.164500441595E-01  8.362304583877E-01  8.563959243286E-01  8.769457772036E-01
  8.978786763219E-01  9.191925608690E-01  9.408846045578E-01  9.629511692246E-01
  9.853877574653E-01  1.008188964419E+00  1.031348428822E+00  1.054858783461E+00
  1.078711605181E+00  1.102897364608E+00  1.127405375768E+00  1.152223745789E+00
  1.177339324923E+00  1.202737657084E+00  1.228402931199E+00  1.254317933593E+00
  1.280464001756E+00  1.306820979762E+00  1.333367175719E+00  1.360079321603E+00
  1.386932535877E+00  1.413900289330E+00  1.440954374597E+00  1.468064879857E+00
  1.495200167237E+00  1.522326856511E+00  1.549409814685E+00  1.576412152135E+00
  1.603295225979E+00  1.630018651420E+00  1.656540321828E+00  1.682816438349E+00
  1.708801549892E+00  1.734448604316E+00  1.759709011700E+00  1.784532720533E+00
  1.808868307684E+00  1.832663082936E+00  1.855863208848E+00  1.878413836595E+00
  1.900259258359E+00  1.921343076663E+00  1.941608390909E+00  1.960998001144E+00
  1.979454628853E+00  1.996921154283E+00  2.013340869532E+00  2.028657746258E+00
  2.042816716544E+00  2.055763965069E+00  2.067447230365E+00  2.077816112594E+00
  2.086822384913E+00  2.094420305229E+00  2.100566924866E+00  2.105222390539E+00
  2.108350235912E+00  2.109917659050E+00  2.109895782244E+00  2.108259890908E+00
  2.104989648701E+00  2.100069286490E+00  2.093487763484E+00  2.085238899556E+00
  2.075321478625E+00  2.063739323826E+00  2.050501346033E+00  2.035621568132E+00
  2.019119128115E+00  2.001018264586E+00  1.981348288589E+00  1.960143545671E+00
  1.937443371792E+00  1.913292046076E+00  1.887738742380E+00  1.860837480348E+00
  1.832647075057E+00  1.803231082576E+00  1.772657736939E+00  1.740999872335E+00
  1.708334822822E+00  1.674744290884E+00  1.640314175779E+00  1.605134005907E+00
  1.569294875412E+00  1.532886564481E+00  1.495996839714E+00  1.458711708905E+00
  1.421114981201E+00  1.383288109001E+00  1.345310004744E+00  1.307256879253E+00
  1.269202097667E+00  1.231216052913E+00  1.193366056587E+00  1.155716247052E+00
  1.118327514429E+00  1.081257442119E+00  1.044560264380E+00  1.008286839439E+00
  9.724846375380E-01  9.371977432680E-01  9.024668714839E-01  8.683293960633E-01
  8.348193907215E-01  8.019676810780E-01  7.698019071400E-01  7.383465953570E-01
  7.076232393887E-01  6.776503887284E-01  6.484437443238E-01  6.200162603493E-01
  5.923782512939E-01  5.655375035501E-01  5.394993907102E-01  5.142669918156E-01
  4.898412117614E-01  4.662209032751E-01  4.434029896788E-01  4.213825878661E-01
  4.001531308876E-01  3.797064895970E-01  3.600330928459E-01  3.411220457600E-01
  3.229612456708E-01  3.055374953185E-01  2.888366129822E-01  2.728435392362E-01
  2.575424400680E-01  2.429168061383E-01  2.289495479721E-01  2.156230869744E-01
  2.029194421050E-01  1.908203121476E-01  1.793071535132E-01  1.683612535456E-01
  1.579637993276E-01  1.480959420084E-01  1.387388566921E-01  1.298737979528E-01
  1.214821510542E-01  1.135454789698E-01  1.060455653159E-01  9.896445331777E-02
  9.228448094245E-02  8.598831234145E-02  8.005896575084E-02  7.447983800470E-02
  6.923472582113E-02  6.430784402331E-02  5.968384086007E-02  5.534781059128E-02
  5.128530350294E-02  4.748233351606E-02  4.392538355100E-02  4.060140880677E-02
  3.749783811096E-02  3.460257349241E-02  3.190398812402E-02  2.939092277858E-02
  2.705268093499E-02  2.487902266711E-02  2.286015744145E-02  2.098673594443E-02
  1.924984105368E-02  1.764097806194E-02  1.615206425615E-02  1.477541794806E-02
  1.350374704704E-02  1.233013725949E-02  1.124803999377E-02  1.025126004376E-02
  9.333943118643E-03  8.490563281223E-03  7.715910351960E-03  7.005077330819E-03
  6.353447884431E-03  5.756683941406E-03  5.210713434375E-03  4.711718223198E-03
  4.256122229897E-03  3.840579812202E-03  3.461964399133E-03  3.117357408817E-03
  2.804037465685E-03  2.519469931390E-03  2.261296761141E-03  2.027326694724E-03
  1.815525789215E-03  1.624008298344E-03  1.451027901539E-03  1.294969283968E-03
  1.154340067293E-03  1.027763089446E-03  9.139690304049E-04  8.117893798354E-04
  7.201497413865E-04  6.380634675409E-04  5.646256181046E-04  4.990072347185E-04
  4.404499231743E-04  3.882607348015E-04  3.418073377635E-04  3.005134687522E-04
  2.638546552909E-04  2.313541986477E-04  2.025794072140E-04  1.771380701097E-04
  1.546751607448E-04  1.348697600718E-04  1.174321893230E-04  1.021013421182E-04
  8.864220596055E-05  7.684356330103E-05  6.651586254300E-05  5.748924957697E-05
  4.961175067465E-05  4.274759783094E-05  3.677568791839E-05  3.158816730821E-05
  2.708913391334E-05  2.319344891907E-05  1.982565078356E-05  1.691896441228E-05
  1.441439873436E-05  1.225992623411E-05  1.040973831473E-05  8.823570693259E-06
  7.466093343451E-06  6.306359815769E-06  5.317311070280E-06  4.475329256815E-06
  3.759837167539E-06  3.152939368488E-06  2.639101288372E-06  2.204862804340E-06
  1.838583115018E-06  1.530213930615E-06  1.271098238055E-06  1.053792115677E-06
  8.719072771441E-07  7.199722176504E-07  5.933100175970E-07  4.879310296246E-07
  4.004388345690E-07  3.279480007635E-07  2.680123195017E-07  2.185623177321E-07
  1.778509675906E-07  1.444066216015E-07  1.169923027241E-07  9.457057036309E-08
  7.627326743162E-08  6.137553004966E-08  4.927351092800E-08  3.946533039569E-08
  3.153482583537E-08  2.513772143630E-08  1.998988609193E-08  1.585738837382E-08
  1.254809420232E-08  9.904585488957E-09  7.798207002448E-09  6.124074351189E-09
  4.796898596449E-09  3.747502909895E-09  2.919924142684E-09  2.269007436410E-09
  1.758415314201E-09  1.358984259054E-09  1.047371813328E-09  8.049458976153E-10
  6.168755114231E-10  4.713883890273E-10  3.591666732068E-10  2.728563554089E-10
  2.066702184452E-10  1.560674005717E-10  1.174955604777E-10  8.818403424027E-11
  6.597840172639E-11  4.920857728754E-11  3.658395672265E-11  2.711033179526E-11
  2.002426176348E-11  1.474140003084E-11  1.081594029614E-11  7.908893686371E-12
  5.763356082476E-12  4.185289984262E-12  3.028642011162E-12  2.183857461583E-12
  1.569047295924E-12  1.123218859870E-12  8.011066145419E-13  5.692388865048E-13
  4.029559838815E-13  2.841578877469E-13  1.996093526104E-13  1.396692751233E-13
  9.734176217680E-14  6.757018638201E-14  4.671406047437E-14  3.216291862072E-14
  2.205246278293E-14  1.505673382527E-14  1.023656917346E-14  6.929560201590E-15
  4.670485629901E-15  3.134011406203E-15  2.093621136319E-15  1.392294563472E-15
  9.216709094703E-16  6.073069128335E-16  3.982939112800E-16  2.599784228015E-16
  1.688821516312E-16  1.091734526066E-16  7.022802418074E-17  4.495068577781E-17
  2.862630037510E-17  0.000000000000E+00  0.000000000000E+00  0.000000000000E+00
  0.000000000000E+00  0.000000000000E+00  0.000000000000E+00  0.000000000000E+00
  0.000000000000E+00  0.000000000000E+00  0.000000000000E+00  0.000000000000E+00
  0.000000000000E+00  0.000000000000E+00  0.000000000000E+00  0.000000000000E+00
  0.000000000000E+00  0.000000000000E+00  0.000000000000E+00  0.000000000000E+00
  0.000000000000E+00  0.000000000000E+00  0.000000000000E+00  0.000000000000E+00
  0.000000000000E+00  0.000000000000E+00  0.000000000000E+00  0.000000000000E+00
  0.000000000000E+00  0.000000000000E+00  0.000000000000E+00  0.000000000000E+00
  0.000000000000E+00  0.000000000000E+00  0.000000000000E+00  0.000000000000E+00
  0.000000000000E+00  0.000000000000E+00  0.000000000000E+00  0.000000000000E+00
  0.000000000000E+00  0.000000000000E+00  0.000000000000E+00  0.000000000000E+00
  0.000000000000E+00  0.000000000000E+00  0.000000000000E+00  0.000000000000E+00
  0.000000000000E+00
</data>
</radfunc>
</valence-charge>
<pseudocore-charge matching-radius="0.912960105028"
 number-of-continuous-derivatives="4">
<annotation model-charge-form="Teter function with specified parameters" />
<radfunc>
<data npts="290">
  1.290516169670E+01  1.290436894239E+01  1.290199912255E+01  1.289804541308E+01
  1.289224393106E+01  1.288484139693E+01  1.287540685713E+01  1.286460334234E+01
  1.285245574965E+01  1.283828946737E+01  1.282232129173E+01  1.280496455712E+01
  1.278398736173E+01  1.276207815747E+01  1.274019072383E+01  1.271497861291E+01
  1.268594455199E+01  1.265842176032E+01  1.262747904571E+01  1.259270099748E+01
  1.255362431090E+01  1.251892307453E+01  1.248085095416E+01  1.243909190480E+01
  1.239330264283E+01  1.234311080930E+01  1.228811312488E+01  1.224345000931E+01
  1.219564244568E+01  1.214448251886E+01  1.208975063631E+01  1.203121520169E+01
  1.196863233873E+01  1.190174567878E+01  1.183028622714E+01  1.175397232578E+01
  1.167250973232E+01  1.158559183798E+01  1.152445899978E+01  1.146066297682E+01
  1.139410436597E+01  1.132468172722E+01  1.125229172893E+01  1.117682931914E+01
  1.109818792560E+01  1.101625968684E+01  1.093093571731E+01  1.084210640908E+01
  1.074966177321E+01  1.065349182387E+01  1.055348700812E+01  1.044953868478E+01
  1.034153965534E+01  1.022938475033E+01  1.011297147411E+01  9.992200711285E+00
  9.866977497522E+00  9.737211857511E+00  9.602819712413E+00  9.463723858767E+00
  9.319855020324E+00  9.171152973671E+00  9.017567747738E+00  8.859060896417E+00
  8.695606842428E+00  8.527194289368E+00  8.353827697439E+00  8.265292715431E+00
  8.175528816727E+00  8.084541681350E+00  7.992338270052E+00  7.898926875765E+00
  7.804317175360E+00  7.708520281624E+00  7.611548795292E+00  7.513416857009E+00
  7.414140199063E+00  7.313736196720E+00  7.212223918983E+00  7.109624178579E+00
  7.005959580979E+00  6.901254572218E+00  6.795535485291E+00  6.688830584878E+00
  6.581170110130E+00  6.472586315258E+00  6.363113507615E+00  6.252788082981E+00
  6.141648557739E+00  6.029735597598E+00  5.917092042536E+00  5.803762927593E+00
  5.689795499165E+00  5.575239226405E+00  5.460145807357E+00  5.344569169423E+00
  5.228565463753E+00  5.112193053174E+00  4.995512493217E+00  4.878586505849E+00
  4.761479945502E+00  4.644259756967E+00  4.526994924781E+00  4.409756413691E+00
  4.292617099829E+00  4.175651692223E+00  4.058936644313E+00  3.942550055141E+00
  3.826571559932E+00  3.711082209803E+00  3.596164340382E+00  3.481901429172E+00
  3.368377941510E+00  3.255679165076E+00  3.143891032916E+00  3.033099935054E+00
  2.923392518800E+00  2.814855477968E+00  2.707575331289E+00  2.601638190402E+00
  2.497129517876E+00  2.394133875857E+00  2.292734666005E+00  2.193013861513E+00
  2.095051732104E+00  1.998926563030E+00  1.904714369211E+00  1.812488605767E+00
  1.722319876332E+00  1.634275640643E+00  1.548419923038E+00  1.464813023585E+00
  1.383511233697E+00  1.304566558191E+00  1.228026445823E+00  1.153933530438E+00
  1.082325384941E+00  1.013234290343E+00  9.466870221876E-01  8.827046566746E-01
  8.213023988034E-01  7.624894348353E-01  7.062688113161E-01  6.526373428302E-01
  6.015855505445E-01  5.530976334652E-01  5.071514741549E-01  4.637186804550E-01
  4.227646645163E-01  3.842487601689E-01  3.481243793507E-01  3.143392079771E-01
  2.828354412569E-01  2.535500580631E-01  2.264151335353E-01  2.013581886438E-01
  1.783025749796E-01  1.571678925552E-01  1.378704379197E-01  1.203236794100E-01
  1.044387558920E-01  9.012499489076E-02  7.729044558929E-02  6.584242178669E-02
  5.568804957063E-02  4.673481417815E-02  3.889110030608E-02  3.206671999683E-02
  2.617342217504E-02  2.112537795396E-02  1.683963597375E-02  1.323654228187E-02
  1.024011962132E-02  7.778401456852E-03  5.783716639545E-03  4.192921283002E-03
  2.947575191430E-03  1.994061030814E-03  1.283645355717E-03  7.724815790335E-04
  4.215559809164E-04  1.965788738965E-04  6.782404965495E-05  9.920603132404E-06
  1.602134770953E-06  2.541914472628E-05  6.742112754951E-05  1.168154275552E-04
  1.656103019989E-04  2.082498431884E-04  2.412484184256E-04  2.628320905989E-04
  2.725940812201E-04  2.711707377458E-04  2.599436816752E-04  2.407728642994E-04
  2.157641715638E-04  1.870740334887E-04  1.567522479061E-04  1.266229681804E-04
  9.820257797975E-05  7.265203149753E-05  5.076022154299E-05  3.295409326498E-05
  1.933058406396E-05  9.705067829376E-06  3.670830590398E-06  6.642092840247E-07
  3.037670922405E-08  1.085331526102E-06  3.170417267018E-06  5.696602358613E-06
  8.176748784966E-06  1.024511913595E-05  1.166435724612E-05  1.232106547263E-05
  1.221183741375E-05  1.142214468111E-05  1.010079056316E-05  8.432719293991E-06
  6.612812773911E-06  4.822940962700E-06  3.213998596383E-06  1.894013862311E-06
  9.227178326509E-07  3.122839037186E-07  3.334851343087E-08  2.496319185968E-08
  2.068439262400E-07  4.921980980312E-07  7.995213993139E-07  1.062044806988E-06
  1.233932970785E-06  1.292833498466E-06  1.238886720043E-06  1.090762584061E-06
  8.796385914601E-07  6.422290752701E-07  4.140020994706E-07  2.235805126502E-07
  8.904678166251E-08  1.650539381013E-08  0.000000000000E+00  0.000000000000E+00
  0.000000000000E+00  0.000000000000E+00  0.000000000000E+00  0.000000000000E+00
  0.000000000000E+00  0.000000000000E+00  0.000000000000E+00  0.000000000000E+00
  0.000000000000E+00  0.000000000000E+00  0.000000000000E+00  0.000000000000E+00
  0.000000000000E+00  0.000000000000E+00  0.000000000000E+00  0.000000000000E+00
  0.000000000000E+00  0.000000000000E+00  0.000000000000E+00  0.000000000000E+00
  0.000000000000E+00  0.000000000000E+00  0.000000000000E+00  0.000000000000E+00
  0.000000000000E+00  0.000000000000E+00  0.000000000000E+00  0.000000000000E+00
  0.000000000000E+00  0.000000000000E+00  0.000000000000E+00  0.000000000000E+00
  0.000000000000E+00  0.000000000000E+00  0.000000000000E+00  0.000000000000E+00
  0.000000000000E+00  0.000000000000E+00  0.000000000000E+00  0.000000000000E+00
  0.000000000000E+00  0.000000000000E+00  0.000000000000E+00  0.000000000000E+00
  0.000000000000E+00  0.000000000000E+00
</data>
</radfunc>
</pseudocore-charge>
<semilocal-potentials set="scalar_relativistic">
<slps n="3" l="s" rc="1.45375689512" eref="-0.635063569459">
<radfunc>
<data npts="290">
  5.892711217271E+01  5.888885113027E+01  5.877471481862E+01  5.858509086257E+01
  5.830863416835E+01  5.795893690403E+01  5.751813769069E+01  5.701998881144E+01
  5.646812066132E+01  5.583532213664E+01  5.513557973172E+01  5.439079179038E+01
  5.351188677824E+01  5.261784604930E+01  5.174814819845E+01  5.077422071170E+01
  4.968800073295E+01  4.869162980940E+01  4.760827078096E+01  4.643476908883E+01
  4.516881694966E+01  4.408860315328E+01  4.294830951086E+01  4.174842828915E+01
  4.049008096373E+01  3.917506593727E+01  3.780589450013E+01  3.674540027959E+01
  3.565789551006E+01  3.454525310862E+01  3.340957003156E+01  3.225315661625E+01
  3.107852204994E+01  2.988835604460E+01  2.868550691039E+01  2.747295633408E+01
  2.625379127842E+01  2.503117351744E+01  2.421575848788E+01  2.340118600237E+01
  2.258840655941E+01  2.177836360207E+01  2.097198912785E+01  2.017019939192E+01
  1.937389074490E+01  1.858393564443E+01  1.780117887777E+01  1.702643402960E+01
  1.626048022637E+01  1.550405918480E+01  1.475787258879E+01  1.402257981482E+01
  1.329879602248E+01  1.258709062255E+01  1.188798613157E+01  1.120195741809E+01
  1.052943134239E+01  9.870786788283E+00  9.226355082385E+00  8.596420793700E+00
  7.981222903359E+00  7.380956331957E+00  6.795773809298E+00  6.225788068731E+00
  5.671074345544E+00  5.131673155817E+00  4.607593328805E+00  4.351293818145E+00
  4.098815262074E+00  3.850151332788E+00  3.605294364264E+00  3.364235467230E+00
  3.126964645355E+00  2.893470912230E+00  2.663742408711E+00  2.437766520132E+00
  2.215529992908E+00  1.997019049979E+00  1.782219504547E+00  1.571116871518E+00
  1.363696476020E+00  1.159943558367E+00  9.598433747857E-01  7.633812932158E-01
  5.705428834621E-01  3.813140009634E-01  1.956808634271E-01  1.363011957071E-02
 -1.648510907946E-01 -3.397750860960E-01 -5.111536024956E-01 -6.789977642774E-01
 -8.433180658199E-01 -1.004124365806E+00 -1.161425894267E+00 -1.315231272989E+00
 -1.465548549716E+00 -1.612385246500E+00 -1.755748422404E+00 -1.895644750657E+00
 -2.032080610165E+00 -2.165062191151E+00 -2.294595614446E+00 -2.420687063781E+00
 -2.543342930174E+00 -2.662569967234E+00 -2.778375455951E+00 -2.890767377246E+00
 -2.999754590232E+00 -3.105347013856E+00 -3.207555809227E+00 -3.306393559671E+00
 -3.401874445194E+00 -3.494014407764E+00 -3.582831303545E+00 -3.668345037963E+00
 -3.750577679316E+00 -3.829553546472E+00 -3.905299266167E+00 -3.977843795408E+00
 -4.047218404644E+00 -4.113456617577E+00 -4.176594103909E+00 -4.236668521804E+00
 -4.293719307593E+00 -4.347787411081E+00 -4.398914975929E+00 -4.447144965805E+00
 -4.492520738503E+00 -4.535085571860E+00 -4.574882147161E+00 -4.611951997727E+00
 -4.646334932532E+00 -4.678068446915E+00 -4.707187134764E+00 -4.733722118768E+00
 -4.757700517518E+00 -4.779144970136E+00 -4.798073240805E+00 -4.814497926720E+00
 -4.828426293657E+00 -4.839860263267E+00 -4.848796575285E+00 -4.855227145925E+00
 -4.859139640646E+00 -4.860518275169E+00 -4.859344852889E+00 -4.855600039679E+00
 -4.849264868435E+00 -4.840322455653E+00 -4.828759900836E+00 -4.814570326954E+00
 -4.797755006648E+00 -4.778325504852E+00 -4.756305754516E+00 -4.731733968742E+00
 -4.704664280787E+00 -4.675167993787E+00 -4.643334315913E+00 -4.609270454986E+00