Siesta Version  : MaX-1.0-55-g0612142bc
Architecture    : ----
Compiler version: GNU-10.3.0
Compiler flags  : -O3 -funroll-loops -funsafe-math-optimizations -fallow-argument-mismatch -fallow-argument-mismatch;
PP flags        : ----
Libraries       : ----
Parallelisations: MPI
NetCDF support
NetCDF-4 support

Runtime information:
* Directory : /pscratch/sd/w/wkim94/Libxc_tutorial/WS2/siesta/LDA
* Running on 16 nodes in parallel.
>> Start of run:  23-JUL-2023  15:05:21

                           *********************** 
                           *  WELCOME TO SIESTA  * 
                           *********************** 

reinit: Reading from standard input
reinit: Dumping input in INPUT_TMP.03114
************************** Dump of input data file ****************************
# SIESTA INPUT #
SystemLabel              WS2
NumberOfSpecies 2
%block ChemicalSpeciesLabel
 1 74 W
 2 16 S
%endblock ChemicalSpeciesLabel
LatticeConstant 1.0 Ang
%block LatticeVectors
3.1500000000000 0.000000000000  0.00
1.575000000000  2.7279800219    0.00
0.000000000000  0.000000000000  25.0
%endblock LatticeVectors
NumberOfAtoms 3
AtomicCoordinatesFormat Fractional
%block AtomicCoordinatesAndAtomicSpecies
  0.33333333333333 0.33333333333333 0.5000000000  1
  0.66666666666667 0.66666666666667 0.4360000000  2
  0.66666666666667 0.66666666666667 0.5640000000  2
%endblock AtomicCoordinatesAndAtomicSpecies
XC.functional            LDA
XC.authors               PZ
PAO.BasisSize DZP
MeshCutoff               1000 Ry
OccupationFunction       MP
OccupationMPOrder        1
ElectronicTemperature    0.000001 eV
%block kgrid_Monkhorst_Pack
      6     0     0        0.0
      0     6     0        0.0
      0     0     1        0.0
%endblock kgrid_Monkhorst_Pack
SolutionMethod           diagon
Diag.ParallelOverK       T
# Diag.Algorithm           ELPA
# NumberOfEigenStates      1300
DM.UseSaveDM             F
MD.UseSaveXV             T
MD.Steps                 0
MD.TypeOfRun             Broyden
MD.MaxForceTol           0.01 eV/Ang
MD.VariableCell          F
MaxSCFIterations         1000
SCF.DM.Converge          T
SCF.DM.Tolerance         1.0d-8
SCF.MustConverge         T
SCF.Mix                  Hamiltonian
SCF.Mixer.Method         Pulay
SCF.Mixer.Variant        original
SCF.Mixer.Weight         0.30
SCF.Mixer.History        10
Write.DM                 T
Write.H                  F
WriteMullikenPop         1
WriteEigenvalues         T
WriteCoorInitial         T
WriteCoorStep            T
WriteForces              T
XML.Write                T
SaveHS                   F
SaveRho                  T
SaveDeltaRho             F
SaveRhoXC                T
SaveElectrostaticPotential T
SaveNeutralAtomPotential   F
SaveTotalPotential         T
SaveIonicCharge            F
SaveBaderCharge            F
SaveTotalCharge            F
CDF.Save                 T
CDF.Grid.Precision       double
##################
# Band Structure #
##################
BandLinesScale ReciprocalLatticeVectors
%block BandLines
1  0.0000000   0.00000000 0.000   \Gamma
30 0.3333333   0.66666666 0.000   K
15 0.5000000   0.50000000 0.000   M
26 0.0000000   0.00000000 0.000   \Gamma
%endblock bandlinek
#WFS.Write.For.Bands T
#WFS.Band.Min 400
#WFS.Band.Max 500
#%block BandLines
#1  0.0000000   0.00000000 0.000   \Gamma
#60 7.0000000  -2.33333333 0.000   K
#60 3.5000000  -3.50000000 0.000   M
#60 0.0000000   0.00000000 0.000   \Gamma
#%endblock BandLines
################
# Wavefunction #
#################
# WriteWaveFunctions              F
# WaveFuncKPointsScale ReciprocalLatticeVectors
# %block WaveFuncKPoints
# 0.000  0.000  0.000  from 1 to 10 # Gamma wavefuncs 1 to 10
# 2.000  0.000  0.000  1 3 5        # X wavefuncs 1,3 and 5
# 1.500  1.500  1.500               # K wavefuncs, all
# %endblock WaveFuncKPoints
########
# PDOS #
########
# %block ProjectedDensityOfStates
# -10.00  0.00  0.050  500  eV
# %endblock ProjectedDensityOfStates
# %block PDOS.kgrid_Monkhorst_Pack
#       3      0     0        0.0
#       0      3     0        0.0
#       0      0     1        0.0
# %endblock PDOS.kgrid_Monkhorst_Pack
# %include grimme.fdf
# Slab.DipoleCorrection vacuum
# %block Geometry.Charge
# plane   0
# delta
# 0.0 0.0 2.5 Ang  # An intersection point, in the plane
# 0.0 0.0 1.0      # The normal vector to the plane
# %endblock Geometry.Charge
************************** End of input data file *****************************

reinit: -----------------------------------------------------------------------
reinit: System Name: 
reinit: -----------------------------------------------------------------------
reinit: System Label: WS2
reinit: -----------------------------------------------------------------------

initatom: Reading input for the pseudopotentials and atomic orbitals ----------
Species number:   1 Atomic number:   74 Label: W
Species number:   2 Atomic number:   16 Label: S


---- Processing specs for species: W
Ground state valence configuration:   6s02  5d04
Reading pseudopotential information in PSML from:
  W.psml
PSML file version: 1.1
Using libxc ids:    1   9
LDA--CA XC_LDA_X--XC_LDA_C_PZ ca
 Using ATOM defaults for log grid...
PSML uuid: fcb8b1d0-159f-11ee-454c-def0b51f1855

---- Processing specs for species: S
Ground state valence configuration:   3s02  3p04
Reading pseudopotential information in PSML from:
  S.psml
PSML file version: 1.1
Using libxc ids:    1   9
LDA--CA XC_LDA_X--XC_LDA_C_PZ ca
 Using ATOM defaults for log grid...
PSML uuid: d8c81a40-159f-11ee-7ea3-f7e07fb497ef
Semicore shell(s) with 22 electrons included in the valence for W

---- Pseudopotential check for W 

Pseudized shells:
5s( 2.00) rc: 2.17
5p( 6.00) rc: 2.22
5d( 4.00) rc: 1.90
4f(14.00) rc: 3.07
Valence configuration for ps generation: 4f:5s:5p:6s:5d: Total charge:  28.000000
Semicore shell(s): 5s 5p 4f

---- Pseudopotential check for S 

Pseudized shells:
3s( 2.00) rc: 2.13
3p( 4.00) rc: 1.52
Valence configuration for ps generation: 3s:3p: Total charge:   6.000000
For W, standard SIESTA heuristics set lmxkb to 4
 (one more than the basis l, including polarization orbitals).
Use PS.lmax or PS.KBprojectors blocks to override.
Warning: For W lmxkb would have been set to 4
Setting it to maximum value of 3 (f projector)
For S, standard SIESTA heuristics set lmxkb to 3
 (one more than the basis l, including polarization orbitals).
Use PS.lmax or PS.KBprojectors blocks to override.
S pseudopotential only contains V_ls up to l=1 -- lmxkb reset.

<basis_specs>
===============================================================================
W                    Z=  74    Mass=  183.85        Charge= 0.17977+309
Lmxo=3 Lmxkb= 3    BasisType=split      Semic=T
L=0  Nsemic=1  Cnfigmx=6
          i=1  nzeta=1  polorb=0  (5s)  (semicore shell)
            splnorm:   0.15000    
               vcte:    0.0000    
               rinn:    0.0000    
               qcoe:    0.0000    
               qyuk:    0.0000    
               qwid:   0.10000E-01
                rcs:    0.0000    
            lambdas:    1.0000    
          i=2  nzeta=2  polorb=1  (6s)  (to be polarized perturbatively)
            splnorm:   0.15000    
               vcte:    0.0000    
               rinn:    0.0000    
               qcoe:    0.0000    
               qyuk:    0.0000    
               qwid:   0.10000E-01
                rcs:    0.0000      0.0000    
            lambdas:    1.0000      1.0000    
L=1  Nsemic=1  Cnfigmx=6
          i=1  nzeta=1  polorb=0  (5p)  (semicore shell)
            splnorm:   0.15000    
               vcte:    0.0000    
               rinn:    0.0000    
               qcoe:    0.0000    
               qyuk:    0.0000    
               qwid:   0.10000E-01
                rcs:    0.0000    
            lambdas:    1.0000    
          i=2  nzeta=0  polorb=0  (6p)  (perturbative polarization orbital) (from 6s)
L=2  Nsemic=0  Cnfigmx=5
          i=1  nzeta=2  polorb=0  (5d)
            splnorm:   0.15000    
               vcte:    0.0000    
               rinn:    0.0000    
               qcoe:    0.0000    
               qyuk:    0.0000    
               qwid:   0.10000E-01
                rcs:    0.0000      0.0000    
            lambdas:    1.0000      1.0000    
L=3  Nsemic=1  Cnfigmx=5
          i=1  nzeta=1  polorb=0  (4f)  (semicore shell)
            splnorm:   0.15000    
               vcte:    0.0000    
               rinn:    0.0000    
               qcoe:    0.0000    
               qyuk:    0.0000    
               qwid:   0.10000E-01
                rcs:    0.0000    
            lambdas:    1.0000    
          i=2  nzeta=0  polorb=0  (5f)  (empty shell (??) )
-------------------------------------------------------------------------------
L=0  Nkbl=2  erefs: 0.17977+309 0.17977+309
L=1  Nkbl=2  erefs: 0.17977+309 0.17977+309
L=2  Nkbl=1  erefs: 0.17977+309
L=3  Nkbl=2  erefs: 0.17977+309 0.17977+309
===============================================================================
</basis_specs>

atom: Called for W                     (Z =  74)

read_vps: Pseudopotential generation method:
read_vps: ONCVPSP-3.Hamann's oncvpsp                        
Valence charge in pseudo generation:   28.00000

xc_check: Exchange-correlation functional:
xc_check: Ceperley-Alder
Got Vlocal (oncv-fit) from psml data
Choosing vlocal chloc cutoff:  6.100858
qtot up to nchloc:   28.00010580
atom: Maximum radius for chlocal:    6.10086
atom: Maximum radius for r*vlocal+2*Zval:    6.10086
Reading KB projs from W psml data
Using scalar-relativistic projectors in PSML file

PSML: Kleinman-Bylander projectors: 
   l= 0   rc=  2.216479   Ekb= 15.814158
   l= 0   rc=  2.216479   Ekb=  1.874745
   l= 1   rc=  2.272590   Ekb=  7.972544
   l= 1   rc=  2.272590   Ekb=  1.057025
   l= 2   rc=  1.931733   Ekb=  2.794720
   l= 2   rc=  1.931733   Ekb=  0.121160
   l= 3   rc=  3.106275   Ekb= -9.871206
   l= 3   rc=  3.106275   Ekb= -5.769950

PSML: Total number of  Kleinman-Bylander projectors:  32
atom: -------------------------------------------------------------------------

atom: SANKEY-TYPE ORBITALS:
atom: Selected multiple-zeta basis: split     

SPLIT: Orbitals with angular momentum L= 0

SPLIT: Basis orbitals for state 5s

SPLIT: PAO cut-off radius determined from an
SPLIT: energy shift=  0.020000 Ry

   izeta = 1
                 lambda =    1.000000
                     rc =    2.640378
                 energy =   -5.810277
                kinetic =    2.053493
    potential(screened) =   -7.863770
       potential(ionic) =  -45.765872

SPLIT: Basis orbitals for state 6s

SPLIT: PAO cut-off radius determined from an
SPLIT: energy shift=  0.020000 Ry

   izeta = 1
                 lambda =    1.000000
                     rc =    5.731224
                 energy =   -0.617407
                kinetic =    1.702840
    potential(screened) =   -2.320246
       potential(ionic) =  -26.063109

   izeta = 2
                 rmatch =    5.251052
              splitnorm =    0.150000
                 energy =   -0.542233
                kinetic =    2.426719
    potential(screened) =   -2.968952
       potential(ionic) =  -29.474817

SPLIT: Orbitals with angular momentum L= 1

SPLIT: Basis orbitals for state 5p

SPLIT: PAO cut-off radius determined from an
SPLIT: energy shift=  0.020000 Ry

   izeta = 1
                 lambda =    1.000000
                     rc =    3.067687
                 energy =   -3.167786
                kinetic =    3.812400
    potential(screened) =   -6.980186
       potential(ionic) =  -42.608302

SPLIT: Orbitals with angular momentum L= 2

SPLIT: Basis orbitals for state 5d

SPLIT: PAO cut-off radius determined from an
SPLIT: energy shift=  0.020000 Ry

   izeta = 1
                 lambda =    1.000000
                     rc =    5.057783
                 energy =   -0.323676
                kinetic =    3.384783
    potential(screened) =   -3.708459
       potential(ionic) =  -31.825385

   izeta = 2
                 rmatch =    3.519875
              splitnorm =    0.150000
                 energy =   -0.126259
                kinetic =    4.744757
    potential(screened) =   -4.871017
       potential(ionic) =  -36.491601

SPLIT: Orbitals with angular momentum L= 3

SPLIT: Basis orbitals for state 4f

SPLIT: PAO cut-off radius determined from an
SPLIT: energy shift=  0.020000 Ry

   izeta = 1
                 lambda =    1.000000
                     rc =    2.511604
                 energy =   -2.445362
                kinetic =   11.495762
    potential(screened) =  -13.941125
       potential(ionic) =  -48.735282

POLgen: Perturbative polarization orbital with L=  1

POLgen: Polarization orbital for state 6s

   izeta = 1
                     rc =    5.731224
                 energy =    0.124955
                kinetic =    2.088992
    potential(screened) =   -1.964037
       potential(ionic) =  -23.003641
atom: Total number of Sankey-type orbitals: 26

atm_pop: Valence configuration (for local Pseudopot. screening):
 5s( 2.00) 6s( 2.00)                                                  
 5p( 6.00) 6p( 0.00)                                                  
 5d( 4.00)                                                            
 4f(14.00) 5f( 0.00)                                                  
Vna: chval, zval:   28.00000  28.00000

Vna:  Cut-off radius for the neutral-atom potential:   5.731224

atom: _________________________________________________________________________

<basis_specs>
===============================================================================
S                    Z=  16    Mass=  32.070        Charge= 0.17977+309
Lmxo=2 Lmxkb= 1    BasisType=split      Semic=F
L=0  Nsemic=0  Cnfigmx=3
          i=1  nzeta=2  polorb=0  (3s)
            splnorm:   0.15000    
               vcte:    0.0000    
               rinn:    0.0000    
               qcoe:    0.0000    
               qyuk:    0.0000    
               qwid:   0.10000E-01
                rcs:    0.0000      0.0000    
            lambdas:    1.0000      1.0000    
L=1  Nsemic=0  Cnfigmx=3
          i=1  nzeta=2  polorb=1  (3p)  (to be polarized perturbatively)
            splnorm:   0.15000    
               vcte:    0.0000    
               rinn:    0.0000    
               qcoe:    0.0000    
               qyuk:    0.0000    
               qwid:   0.10000E-01
                rcs:    0.0000      0.0000    
            lambdas:    1.0000      1.0000    
L=2  Nsemic=0  Cnfigmx=3
          i=1  nzeta=0  polorb=0  (3d)  (perturbative polarization orbital) (from 3p)
-------------------------------------------------------------------------------
L=0  Nkbl=1  erefs: 0.17977+309
L=1  Nkbl=1  erefs: 0.17977+309
===============================================================================
</basis_specs>

atom: Called for S                     (Z =  16)
NOTE: S pseudopotential has channels up to l= 1
NOTE: PAOs with higher l will be generated with V_local

read_vps: Pseudopotential generation method:
read_vps: ONCVPSP-3.Hamann's oncvpsp                        
Valence charge in pseudo generation:    6.00000

xc_check: Exchange-correlation functional:
xc_check: Ceperley-Alder
Got Vlocal (oncv-fit) from psml data
Choosing vlocal chloc cutoff:  5.988766
qtot up to nchloc:    6.00041856
atom: Maximum radius for chlocal:    5.98877
atom: Maximum radius for r*vlocal+2*Zval:    5.98877
Reading KB projs from S psml data
Using scalar-relativistic projectors in PSML file

PSML: Kleinman-Bylander projectors: 
   l= 0   rc=  2.175677   Ekb= 17.965436
   l= 0   rc=  2.175677   Ekb=  1.361463
   l= 1   rc=  1.552415   Ekb= 21.455266
   l= 1   rc=  1.552415   Ekb=  5.071409

PSML: Total number of  Kleinman-Bylander projectors:   8
atom: -------------------------------------------------------------------------

atom: SANKEY-TYPE ORBITALS:
atom: Selected multiple-zeta basis: split     

SPLIT: Orbitals with angular momentum L= 0

SPLIT: Basis orbitals for state 3s

SPLIT: PAO cut-off radius determined from an
SPLIT: energy shift=  0.020000 Ry

   izeta = 1
                 lambda =    1.000000
                     rc =    4.167741
                 energy =   -1.252260
                kinetic =    0.958827
    potential(screened) =   -2.211087
       potential(ionic) =   -7.249940

   izeta = 2
                 rmatch =    3.498614
              splitnorm =    0.150000
                 energy =   -1.071418
                kinetic =    1.523173
    potential(screened) =   -2.594591
       potential(ionic) =   -7.866180

SPLIT: Orbitals with angular momentum L= 1

SPLIT: Basis orbitals for state 3p

SPLIT: PAO cut-off radius determined from an
SPLIT: energy shift=  0.020000 Ry

   izeta = 1
                 lambda =    1.000000
                     rc =    5.090524
                 energy =   -0.505027
                kinetic =    1.510775
    potential(screened) =   -2.015802
       potential(ionic) =   -6.695996

   izeta = 2
                 rmatch =    3.818550
              splitnorm =    0.150000
                 energy =   -0.354657
                kinetic =    2.186722
    potential(screened) =   -2.541379
       potential(ionic) =   -7.625989
*Note: V_local used for l= 2

** Using vlocal for PAOs with L= 2

POLgen: Perturbative polarization orbital with L=  2

POLgen: Polarization orbital for state 3p

   izeta = 1
                     rc =    5.090524
                 energy =    0.727988
                kinetic =    2.182980
    potential(screened) =   -1.454992
       potential(ionic) =   -5.700287
atom: Total number of Sankey-type orbitals: 13

atm_pop: Valence configuration (for local Pseudopot. screening):
 3s( 2.00)                                                            
 3p( 4.00)                                                            
 3d( 0.00)                                                            
Vna: chval, zval:    6.00000   6.00000

Vna:  Cut-off radius for the neutral-atom potential:   5.090524

atom: _________________________________________________________________________

prinput: Basis input 

PAO.BasisType split     

%block ChemicalSpeciesLabel
    1   74 W                       # Species index, atomic number, species label
    2   16 S                       # Species index, atomic number, species label
%endblock ChemicalSpeciesLabel

%block PAO.Basis                 # Define Basis set
# WARNING: This information might be incomplete!
W                     5                    # Species label, number of l-shells
 n=5   0   1                         # n, l, Nzeta 
   2.640   
   1.000   
 n=6   0   2 P   1                   # n, l, Nzeta, Polarization, NzetaPol
   5.731      5.251   
   1.000      1.000   
 n=5   1   1                         # n, l, Nzeta 
   3.068   
   1.000   
 n=5   2   2                         # n, l, Nzeta 
   5.058      3.520   
   1.000      1.000   
 n=4   3   1                         # n, l, Nzeta 
   2.512   
   1.000   
S                     2                    # Species label, number of l-shells
 n=3   0   2                         # n, l, Nzeta 
   4.168      3.499   
   1.000      1.000   
 n=3   1   2 P   1                   # n, l, Nzeta, Polarization, NzetaPol
   5.091      3.819   
   1.000      1.000   
%endblock PAO.Basis

prinput: ----------------------------------------------------------------------

Dumping basis to NetCDF file W.ion.nc
Dumping basis to NetCDF file S.ion.nc
coor:   Atomic-coordinates input format  =     Fractional

ioxv: Reading coordinates and velocities from file
! Info in XV file prevails over previous structure input

siesta: Atomic coordinates (Bohr) and species
siesta:      2.97632   1.71838  23.62159  1        1
siesta:      5.95264   3.43676  20.59802  2        2
siesta:      5.95264   3.43676  26.64515  2        3

siesta: System type = slab      

initatomlists: Number of atoms, orbitals, and projectors:      3    52    48

siesta: ******************** Simulation parameters ****************************
siesta:
siesta: The following are some of the parameters of the simulation.
siesta: A complete list of the parameters used, including default values,
siesta: can be found in file out.fdf
siesta:
redata: Spin configuration                          = none
redata: Number of spin components                   = 1
redata: Time-Reversal Symmetry                      = T
redata: Spin spiral                                 = F
redata: Long output                                 =   F
redata: Number of Atomic Species                    =        2
redata: Charge density info will appear in .RHO file
redata: Write Mulliken Pop.                         = Atomic and Orbital charges
redata: Matel table size (NRTAB)                    =     1024
redata: Mesh Cutoff                                 =  1000.0000 Ry
redata: Net charge of the system                    =     0.0000 |e|
redata: Min. number of SCF Iter                     =        0
redata: Max. number of SCF Iter                     =     1000
redata: SCF convergence failure will abort job
redata: SCF mix quantity                            = Hamiltonian
redata: Mix DM or H after convergence               =   F
redata: Recompute H after scf cycle                 =   F
redata: Mix DM in first SCF step                    =   T
redata: Write Pulay info on disk                    =   F
redata: New DM Occupancy tolerance                  = 0.000000000001
redata: No kicks to SCF
redata: DM Mixing Weight for Kicks                  =     0.5000
redata: Require Harris convergence for SCF          =   F
redata: Harris energy tolerance for SCF             =     0.000100 eV
redata: Require DM convergence for SCF              =   T
redata: DM tolerance for SCF                        =     0.000000
redata: Require EDM convergence for SCF             =   F
redata: EDM tolerance for SCF                       =     0.001000 eV
redata: Require H convergence for SCF               =   T
redata: Hamiltonian tolerance for SCF               =     0.001000 eV
redata: Require (free) Energy convergence for SCF   =   F
redata: (free) Energy tolerance for SCF             =     0.000100 eV
redata: Using Saved Data (generic)                  =   F
redata: Use continuation files for DM               =   F
redata: Neglect nonoverlap interactions             =   F
redata: Method of Calculation                       = Diagonalization
redata: Electronic Temperature                      =     0.0116 K
redata: Fix the spin of the system                  =   F
redata: Max. number of TDED Iter                    =        1
redata: Number of TDED substeps                     =        3
redata: Dynamics option                             = Single-point calculation
mix.SCF: Pulay mixing                            = Pulay
mix.SCF:    Variant                              = stable
mix.SCF:    History steps                        = 10
mix.SCF:    Linear mixing weight                 =     0.300000
mix.SCF:    Mixing weight                        =     0.300000
mix.SCF:    SVD condition                        = 0.1000E-07
redata: Save all siesta data in one NC              =   T
redata: NC compression level                        =        0
redata: ***********************************************************************

%block SCF.Mixers
  Pulay
%endblock SCF.Mixers

%block SCF.Mixer.Pulay
  # Mixing method
  method pulay
  variant stable

  # Mixing options
  weight 0.3000
  weight.linear 0.3000
  history 10
%endblock SCF.Mixer.Pulay

DM_history_depth set to one: no extrapolation allowed by default for geometry relaxation
Size of DM history Fstack: 1
Total number of electrons:    40.000000
Total ionic charge:    40.000000

* ProcessorY, Blocksize:    2   3


* Orbital distribution balance (max,min):     6     3

k-point displ. along   1 input, could be:     0.00    0.50
k-point displ. along   2 input, could be:     0.00    0.50
 Kpoints in:           24 . Kpoints trimmed:           22

siesta: k-grid: Number of k-points = 22
siesta: k-points from Monkhorst-Pack grid
siesta: k-cutoff (effective) =     9.450 Ang
siesta: k-point supercell and displacements
siesta: k-grid:     6     0     0      0.000
siesta: k-grid:     0     6     0      0.000
siesta: k-grid:     0     0     1      0.000

diag: Algorithm                                     = D&C
diag: Parallel over k                               =   T
diag: Use parallel 2D distribution                  =   T
diag: Parallel block-size                           = 3
diag: Parallel distribution                         =     4 x     4
diag: Used triangular part                          = Lower
diag: Absolute tolerance                            =  0.100E-15
diag: Orthogonalization factor                      =  0.100E-05
diag: Memory factor                                 =  1.0000
Using current reciprocal lattice vectors for BandLinesScale
Beware any cell changes by the end of the run
Using current reciprocal lattice vectors for BandLinesScale
Beware any cell changes by the end of the run

superc: Internal auxiliary supercell:     5 x     5 x     1  =      25
superc: Number of atoms, orbitals, and projectors:     75   1300   1200


ts: **************************************************************
ts: Save H and S matrices                           =    F
ts: Save DM and EDM matrices                        =    F
ts: Only save the overlap matrix S                  =    F
ts: **************************************************************

************************ Begin: TS CHECKS AND WARNINGS ************************
************************ End: TS CHECKS AND WARNINGS **************************


                     ====================================
                        Single-point calculation
                     ====================================

outcoor: Atomic coordinates (fractional):                   
    0.33333333    0.33333333    0.50000000   1       1  W
    0.66666667    0.66666667    0.43600000   2       2  S
    0.66666667    0.66666667    0.56400000   2       3  S

superc: Internal auxiliary supercell:     5 x     5 x     1  =      25
superc: Number of atoms, orbitals, and projectors:     75   1300   1200

outcell: Unit cell vectors (Ang):
        3.150000    0.000000    0.000000
        1.575000    2.727980    0.000000
        0.000000    0.000000   25.000000

outcell: Cell vector modules (Ang)   :    3.150000    3.150000   25.000000
outcell: Cell angles (23,13,12) (deg):     90.0000     90.0000     60.0000
outcell: Cell volume (Ang**3)        :    214.8284
<dSpData1D:S at geom step 0
  <sparsity:sparsity for geom step 0
    nrows_g=52 nrows=6 sparsity=1.7574 nnzs=4752, refcount: 7>
  <dData1D:(new from dSpData1D) n=4752, refcount: 1>
refcount: 1>
new_DM -- step:     1
Initializing Density Matrix...
DM filled with atomic data:
<dSpData2D:DM initialized from atoms
  <sparsity:sparsity for geom step 0
    nrows_g=52 nrows=6 sparsity=1.7574 nnzs=4752, refcount: 8>
  <dData2D:DM n=4752 m=1, refcount: 1>
refcount: 1>
No. of atoms with KB's overlaping orbs in proc 0. Max # of overlaps:      22     260

InitMesh: MESH = 54 x 54 x 480 = 1399680
InitMesh: Mesh cutoff (required, used) =  1000.000  1018.836 Ry
New grid distribution:   1
           1       1:   27    1:   14    1:   30
           2       1:   27    1:   14   31:   60
           3       1:   27    1:   14   61:   90
           4       1:   27    1:   14   91:  120
           5       1:   27    1:   14  121:  150
           6       1:   27    1:   14  151:  180
           7       1:   27    1:   14  181:  210
           8       1:   27    1:   14  211:  240
           9       1:   27   15:   27    1:   30
          10       1:   27   15:   27   31:   60
          11       1:   27   15:   27   61:   90
          12       1:   27   15:   27   91:  120
          13       1:   27   15:   27  121:  150
          14       1:   27   15:   27  151:  180
          15       1:   27   15:   27  181:  210
          16       1:   27   15:   27  211:  240
timer(meshCom-Ca) :   4.0531E-06  6.1318E-06  9.0599E-06
timer(BuildDISTR) :   7.6294E-04  5.5838E-02  9.4224E-02
New grid distribution:   2
           1       1:   27    1:   27    1:  101
           2       1:   27    1:   27  102:  106
           3       1:   27    1:   13  107:  112
           4       1:   27   14:   27  107:  112
           5       1:   14    1:   13  113:  120
           6      15:   27    1:   13  113:  120
           7       1:   12   14:   27  113:  120
           8      13:   27   14:   27  113:  120
           9       1:   14    1:   13  121:  128
          10      15:   27    1:   13  121:  128
          11       1:   12   14:   27  121:  128
          12      13:   27   14:   27  121:  128
          13       1:   27    1:   13  129:  135
          14       1:   27   14:   27  129:  135
          15       1:   27    1:   27  136:  140
          16       1:   27    1:   27  141:  240
timer(meshCom-Ca) :   1.9073E-06  2.1942E-06  2.9802E-06
timer(meshCom-Ca) :   1.9073E-06  2.4289E-06  3.0994E-06
timer(BuildDISTR) :   7.8595E-04  8.1039E-04  8.6999E-04
New grid distribution:   3
           1       1:   27    1:   27    1:   86
           2       1:   27    1:   27   87:   91
           3       1:   27    1:   13   92:  101
           4       1:   27   14:   27   92:  101
           5       1:   13    1:   13  102:  120
           6      14:   27    1:   13  102:  120
           7       1:   13   14:   27  102:  120
           8      14:   27   14:   27  102:  120
           9       1:   13    1:   13  121:  140
          10      14:   27    1:   13  121:  140
          11       1:   13   14:   27  121:  140
          12      14:   27   14:   27  121:  140
          13       1:   27    1:   13  141:  150
          14       1:   27   14:   27  141:  150
          15       1:   27    1:   27  151:  155
          16       1:   27    1:   27  156:  240
Setting up quadratic distribution...

stepf: Methfessel-Paxton step function
       Using Hermite-Gauss polynomials of order  1

siesta: Program's energy decomposition (eV):
siesta: Ebs     =     -1775.255690
siesta: Eions   =     10757.993862
siesta: Ena     =      1699.580665
siesta: Ekin    =      2891.262600
siesta: Enl     =     -1188.675958
siesta: Eso     =         0.000000
siesta: Edftu   =         0.000000
siesta: DEna    =        80.730930
siesta: DUscf   =        33.898767
siesta: DUext   =         0.000000
siesta: Ex      =      -607.114022
siesta: Ec      =       -67.619067
siesta: Exc     =      -674.733088
siesta: EbV     =         0.000000
siesta: eta*DQ  =         0.000000
siesta: Emadel  =         0.000000
siesta: Emeta   =         0.000000
siesta: Emolmec =         0.000000
siesta: Ekinion =         0.000000
siesta: Eharris =     -7876.778542
siesta: Etot    =     -7915.929946
siesta: FreeEng =     -7915.929946

        iscf     Eharris(eV)        E_KS(eV)     FreeEng(eV)     dDmax    Ef(eV) dHmax(eV)
   scf:    1    -7876.778542    -7915.929946    -7915.929946  1.115855  0.726121 38.785310
timer(IterSCF   ) :   1.2010E-01  1.2377E-01  1.2418E-01
   scf:    2    -7901.664920    -7931.734515    -7931.734515  0.561723 -5.641452 18.265063
   scf:    3    -7939.117251    -7939.207618    -7939.207618  0.234527 -2.502916  3.613030
   scf:    4    -7938.177840    -7939.129005    -7939.129005  0.119206 -3.849556  4.152652
   scf:    5    -7939.331558    -7939.233579    -7939.233579  0.007578 -3.769928  3.512997
   scf:    6    -7939.590012    -7939.520889    -7939.520889  0.035726 -3.436126  0.136988
   scf:    7    -7939.504224    -7939.515952    -7939.515952  0.008375 -3.350051  0.534488
   scf:    8    -7939.521823    -7939.521249    -7939.521249  0.005684 -3.420997  0.016395
   scf:    9    -7939.521260    -7939.521261    -7939.521261  0.000309 -3.420555  0.002308
   scf:   10    -7939.521261    -7939.521261    -7939.521261  0.000071 -3.420016  0.002499
   scf:   11    -7939.521261    -7939.521261    -7939.521261  0.000016 -3.419942  0.002069
   scf:   12    -7939.521261    -7939.521261    -7939.521261  0.000028 -3.420166  0.000275
mix: Pulay -- inversion failed, > SVD [rank/size] 5 / 9
   scf:   13    -7939.521261    -7939.521261    -7939.521261  0.000003 -3.420131  0.000007
   scf:   14    -7939.521261    -7939.521261    -7939.521261  0.000000 -3.420135  0.000010
mix: Pulay -- inversion failed, > SVD [rank/size] 5 / 9
   scf:   15    -7939.521261    -7939.521261    -7939.521261  0.000000 -3.420134  0.000000
   scf:   16    -7939.521261    -7939.521261    -7939.521261  0.000000 -3.420134  0.000000
   scf:   17    -7939.521261    -7939.521261    -7939.521261  0.000000 -3.420134  0.000000

SCF Convergence by DM+H criterion
max |DM_out - DM_in|         :     0.0000000006
max |H_out - H_in|      (eV) :     0.0000000051
SCF cycle converged after 17 iterations

Using DM_out to compute the final energy and forces
 E_bs from EDM:  -1047.0339158795994     
No. of atoms with KB's overlaping orbs in proc 0. Max # of overlaps:      22     260

siesta: E_KS(eV) =            -7939.5213

siesta: E_KS - E_eggbox =     -7939.5213

siesta: Atomic forces (eV/Ang):
     1    0.000000   -0.000000   -0.000000
     2   -0.000000    0.000000    0.666359
     3   -0.000000    0.000000   -0.666359
----------------------------------------
   Tot    0.000000    0.000000   -0.000000
----------------------------------------
   Max    0.666359
   Res    0.314125    sqrt( Sum f_i^2 / 3N )
----------------------------------------
   Max    0.666359    constrained

Stress tensor Voigt[x,y,z,yz,xz,xy] (kbar):       16.08       16.08       16.06        0.00       -0.00        0.00
(Free)E + p*V (eV/cell)    -7941.6768
Target enthalpy (eV/cell)    -7939.5213

mulliken: Atomic and Orbital Populations:

Species: W                   
Atom  Qatom  Qorb
               5s      6s      6s      5py     5pz     5px     5dxy    5dyz    
               5dz2    5dxz    5dx2-y2 5dxy    5dyz    5dz2    5dxz    5dx2-y2 
               4fy(3x2-4fxyz   4fz2y   4fz3    4fz2x   4fz(x2-y4fx(x2-36Ppy    
               6Ppz    6Ppx    
   1 27.394   1.986   0.975  -0.426   1.973   1.965   1.973   0.915   0.696
              0.920   0.696   0.915  -0.018   0.089   0.008   0.089  -0.018

              1.998   1.996   1.997   1.998   1.997   1.996   1.997   0.223

              0.228   0.223

Species: S                   
Atom  Qatom  Qorb
               3s      3s      3py     3pz     3px     3py     3pz     3px     
               3Pdxy   3Pdyz   3Pdz2   3Pdxz   3Pdx2-y2
   2  6.303   1.463   0.273   1.381   1.603   1.381   0.007  -0.080   0.007
              0.053   0.054   0.053   0.054   0.053
   3  6.303   1.463   0.273   1.381   1.603   1.381   0.007  -0.080   0.007
              0.053   0.054   0.053   0.054   0.053

mulliken: Qtot =       40.000
Computing bands...
*** Note: ParallelOverK option not used for Bands

diag: Algorithm                                     = D&C
diag: Parallel over k                               =   F
diag: Use parallel 2D distribution                  =   T
diag: Parallel block-size                           = 3
diag: Parallel distribution                         =     4 x     4
diag: Used triangular part                          = Lower
diag: Absolute tolerance                            =  0.100E-15
diag: Orthogonalization factor                      =  0.100E-05
diag: Memory factor                                 =  1.0000

siesta: Eigenvalues (eV):
  ik is       eps
   1  1  -78.4212  -42.7640  -42.6612  -42.5687  -32.6825  -32.6745  -32.6208  -32.6191  -32.6138  -32.6091
         -32.5666  -17.6963  -17.0731  -10.2820   -9.0806   -8.9734   -7.4833   -6.4822   -5.9011   -5.7719
   -1.8656   -1.8314   -0.6319    0.0251    3.2394    4.5362    5.4077    7.8074    7.9796    8.8477
   10.2211   10.4592   11.3011   12.3578   13.5220   13.9520   15.1038   21.1109   21.3712   21.5112
   26.4195   27.2881   29.3427   31.0241   32.4836   35.7878   37.7196   38.1939   43.4942   49.1313
   53.9067   70.0005
   2  1  -78.4384  -42.6840  -42.5945  -42.5262  -32.6854  -32.6849  -32.6304  -32.6130  -32.6107  -32.6079
         -32.5720  -18.7423  -17.4690  -10.4016   -8.2006   -7.6613   -6.7802   -6.5672   -5.8382   -4.9763
   -2.0188   -1.7300   -1.4734   -0.7403    4.5065    6.0185    6.3217    7.7892    8.2090    8.3028
    9.7196    9.7358   10.1564   12.1017   12.2055   14.0581   14.0613   19.8002   21.7587   24.1310
   26.8991   29.1825   29.4054   30.9998   31.2201   34.8076   36.1282   38.4227   43.4084   48.0535
   49.3949   62.4444
   3  1  -78.4489  -42.6950  -42.5042  -42.5042  -32.6897  -32.6897  -32.6353  -32.6073  -32.6073  -32.6058
         -32.5745  -19.1716  -17.6273  -10.9314   -7.2375   -7.2375   -6.6274   -5.9226   -5.9226   -4.6485
   -1.4077   -1.4077   -1.4070   -1.4070    3.1590    5.3217    7.0357    7.0357    7.6203    9.3946
    9.3946    9.9380   11.8324   13.3626   13.3626   13.4212   13.4212   17.4973   24.3568   25.0762
   25.0762   28.3707   28.3707   32.4734   32.4734   35.6652   37.7095   37.7095   46.8507   47.4604
   47.4604   62.4358
   4  1  -78.4142  -42.8380  -42.6498  -42.5873  -32.6823  -32.6687  -32.6162  -32.6144  -32.6095  -32.6064
         -32.5638  -17.0235  -16.8289  -11.0402   -9.7810   -8.9756   -7.8445   -6.7394   -5.5542   -5.4605
   -1.5421   -1.1187   -0.1485    0.2223    1.5781    3.7778    4.7962    6.8649    7.0923    7.7171
   11.3815   12.3756   12.6621   13.9478   15.0131   15.3660   15.6605   18.7153   21.0672   21.3767
   24.5246   25.3215   27.7220   28.7319   35.0283   37.2052   40.0204   40.9898   48.3806   49.5017
   57.0641   93.0454
   5  1  -78.4148  -42.7978  -42.6497  -42.6294  -32.6812  -32.6709  -32.6233  -32.6149  -32.6105  -32.6095
         -32.5640  -17.0480  -16.8084  -10.4827   -9.8120   -8.7620   -8.0447   -7.2352   -6.5634   -5.0819
   -1.8828   -1.0553   -0.7975    0.5413    2.6796    5.2140    5.5422    6.8424    7.1721    8.1647
   10.0460   10.4903   11.8785   12.2575   14.4762   15.6348   18.4696   19.0160   20.5401   21.6182
   24.1852   26.3844   29.1841   30.0536   33.2221   37.0689   37.6372   40.9461   41.4732   56.5158
   57.0500   78.6925
   6  1  -78.4257  -42.7084  -42.6671  -42.5729  -32.6830  -32.6771  -32.6219  -32.6191  -32.6130  -32.6105
         -32.5680  -17.9884  -17.1793   -9.8389   -9.0073   -8.4537   -7.9598   -6.6603   -5.8505   -5.3985
   -2.4392   -1.5888   -1.3477    0.1767    4.3405    6.2837    6.6608    7.2218    7.6460    8.0848
    8.9894    9.3400   11.3984   12.0374   12.2250   14.8540   15.3114   20.2169   21.3011   23.1761
   25.7529   29.7065   30.6639   30.6855   31.8500   33.7178   36.2959   40.8839   41.9339   51.6211
   51.9323   66.2402
   7  1  -78.4384  -42.6840  -42.5945  -42.5262  -32.6854  -32.6849  -32.6304  -32.6130  -32.6107  -32.6079
         -32.5720  -18.7423  -17.4690  -10.4016   -8.2006   -7.6613   -6.7802   -6.5672   -5.8382   -4.9763
   -2.0188   -1.7300   -1.4734   -0.7403    4.5065    6.0185    6.3217    7.7892    8.2090    8.3028
    9.7196    9.7358   10.1564   12.1017   12.2055   14.0581   14.0613   19.8002   21.7587   24.1310
   26.8991   29.1825   29.4054   30.9998   31.2201   34.8076   36.1282   38.4227   43.4084   48.0535
   49.3949   62.4444
   8  1  -78.4384  -42.6840  -42.5945  -42.5262  -32.6854  -32.6849  -32.6304  -32.6130  -32.6107  -32.6079
         -32.5720  -18.7423  -17.4690  -10.4016   -8.2006   -7.6613   -6.7802   -6.5672   -5.8382   -4.9763
   -2.0188   -1.7300   -1.4734   -0.7403    4.5065    6.0185    6.3217    7.7892    8.2090    8.3028
    9.7196    9.7358   10.1564   12.1017   12.2055   14.0581   14.0613   19.8002   21.7587   24.1310
   26.8991   29.1825   29.4054   30.9998   31.2201   34.8076   36.1282   38.4227   43.4084   48.0535
   49.3949   62.4444
   9  1  -78.4257  -42.7084  -42.6671  -42.5729  -32.6830  -32.6771  -32.6219  -32.6191  -32.6130  -32.6105
         -32.5680  -17.9884  -17.1793   -9.8389   -9.0073   -8.4537   -7.9598   -6.6603   -5.8505   -5.3985
   -2.4392   -1.5888   -1.3477    0.1767    4.3405    6.2837    6.6608    7.2218    7.6460    8.0848
    8.9894    9.3400   11.3984   12.0374   12.2250   14.8540   15.3114   20.2169   21.3011   23.1761
   25.7529   29.7065   30.6639   30.6855   31.8500   33.7178   36.2959   40.8839   41.9339   51.6211
   51.9323   66.2402
  10  1  -78.4148  -42.7978  -42.6497  -42.6294  -32.6812  -32.6709  -32.6233  -32.6149  -32.6105  -32.6095
         -32.5640  -17.0480  -16.8084  -10.4827   -9.8120   -8.7620   -8.0447   -7.2352   -6.5634   -5.0819
   -1.8828   -1.0553   -0.7975    0.5413    2.6796    5.2140    5.5422    6.8424    7.1721    8.1647
   10.0460   10.4903   11.8785   12.2575   14.4762   15.6348   18.4696   19.0160   20.5401   21.6182
   24.1852   26.3844   29.1841   30.0536   33.2221   37.0689   37.6372   40.9461   41.4732   56.5158
   57.0500   78.6925
  11  1  -78.4112  -42.7529  -42.7234  -42.6436  -32.6797  -32.6711  -32.6310  -32.6141  -32.6132  -32.6105
         -32.5628  -16.6913  -16.6378  -10.3607   -9.8658   -9.0335   -8.3750   -7.8260   -6.9888   -4.4961
   -2.4133   -1.2178   -0.4755    1.1875    3.2457    3.3090    6.7637    7.8023    8.1737    9.0975
    9.1340    9.4409   11.1065   11.1131   15.6262   15.8336   18.0864   19.0680   20.5215   22.4746
   24.3571   24.8041   28.8316   31.2184   35.1388   37.4154   37.9426   38.2523   39.1972   57.2378
   58.7980   66.0450
  12  1  -78.4148  -42.7978  -42.6497  -42.6294  -32.6812  -32.6709  -32.6233  -32.6149  -32.6105  -32.6095
         -32.5640  -17.0480  -16.8084  -10.4827   -9.8120   -8.7620   -8.0447   -7.2352   -6.5634   -5.0819
   -1.8828   -1.0553   -0.7975    0.5413    2.6796    5.2140    5.5422    6.8424    7.1721    8.1647
   10.0460   10.4903   11.8785   12.2575   14.4762   15.6348   18.4696   19.0160   20.5401   21.6182
   24.1852   26.3844   29.1841   30.0536   33.2221   37.0689   37.6372   40.9461   41.4732   56.5158
   57.0500   78.6925
  13  1  -78.4212  -42.7640  -42.6612  -42.5687  -32.6825  -32.6745  -32.6208  -32.6191  -32.6138  -32.6091
         -32.5666  -17.6963  -17.0731  -10.2820   -9.0806   -8.9734   -7.4833   -6.4822   -5.9011   -5.7719
   -1.8656   -1.8314   -0.6319    0.0251    3.2394    4.5362    5.4077    7.8074    7.9796    8.8477
   10.2211   10.4592   11.3011   12.3578   13.5220   13.9520   15.1038   21.1109   21.3712   21.5112
   26.4195   27.2881   29.3427   31.0241   32.4836   35.7878   37.7196   38.1939   43.4942   49.1313
   53.9067   70.0005
  14  1  -78.4257  -42.7084  -42.6671  -42.5729  -32.6830  -32.6771  -32.6219  -32.6191  -32.6130  -32.6105
         -32.5680  -17.9884  -17.1793   -9.8389   -9.0073   -8.4537   -7.9598   -6.6603   -5.8505   -5.3985
   -2.4392   -1.5888   -1.3477    0.1767    4.3405    6.2837    6.6608    7.2218    7.6460    8.0848
    8.9894    9.3400   11.3984   12.0374   12.2250   14.8540   15.3114   20.2169   21.3011   23.1761
   25.7529   29.7065   30.6639   30.6855   31.8500   33.7178   36.2959   40.8839   41.9339   51.6211
   51.9323   66.2402
  15  1  -78.4212  -42.7640  -42.6612  -42.5687  -32.6825  -32.6745  -32.6208  -32.6191  -32.6138  -32.6091
         -32.5666  -17.6963  -17.0731  -10.2820   -9.0806   -8.9734   -7.4833   -6.4822   -5.9011   -5.7719
   -1.8656   -1.8314   -0.6319    0.0251    3.2394    4.5362    5.4077    7.8074    7.9796    8.8477
   10.2211   10.4592   11.3011   12.3578   13.5220   13.9520   15.1038   21.1109   21.3712   21.5112
   26.4195   27.2881   29.3427   31.0241   32.4836   35.7878   37.7196   38.1939   43.4942   49.1313
   53.9067   70.0005
  16  1  -78.4148  -42.7978  -42.6497  -42.6294  -32.6812  -32.6709  -32.6233  -32.6149  -32.6105  -32.6095
         -32.5640  -17.0480  -16.8084  -10.4827   -9.8120   -8.7620   -8.0447   -7.2352   -6.5634   -5.0819
   -1.8828   -1.0553   -0.7975    0.5413    2.6796    5.2140    5.5422    6.8424    7.1721    8.1647
   10.0460   10.4903   11.8785   12.2575   14.4762   15.6348   18.4696   19.0160   20.5401   21.6182
   24.1852   26.3844   29.1841   30.0536   33.2221   37.0689   37.6372   40.9461   41.4732   56.5158
   57.0500   78.6925
  17  1  -78.4148  -42.7978  -42.6497  -42.6294  -32.6812  -32.6709  -32.6233  -32.6149  -32.6105  -32.6095
         -32.5640  -17.0480  -16.8084  -10.4827   -9.8120   -8.7620   -8.0447   -7.2352   -6.5634   -5.0819
   -1.8828   -1.0553   -0.7975    0.5413    2.6796    5.2140    5.5422    6.8424    7.1721    8.1647
   10.0460   10.4903   11.8785   12.2575   14.4762   15.6348   18.4696   19.0160   20.5401   21.6182
   24.1852   26.3844   29.1841   30.0536   33.2221   37.0689   37.6372   40.9461   41.4732   56.5158
   57.0500   78.6925
  18  1  -78.4148  -42.7978  -42.6497  -42.6294  -32.6812  -32.6709  -32.6233  -32.6149  -32.6105  -32.6095
         -32.5640  -17.0480  -16.8084  -10.4827   -9.8120   -8.7620   -8.0447   -7.2352   -6.5634   -5.0819
   -1.8828   -1.0553   -0.7975    0.5413    2.6796    5.2140    5.5422    6.8424    7.1721    8.1647
   10.0460   10.4903   11.8785   12.2575   14.4762   15.6348   18.4696   19.0160   20.5401   21.6182
   24.1852   26.3844   29.1841   30.0536   33.2221   37.0689   37.6372   40.9461   41.4732   56.5158
   57.0500   78.6925
  19  1  -78.4142  -42.8380  -42.6498  -42.5873  -32.6823  -32.6687  -32.6162  -32.6144  -32.6095  -32.6064
         -32.5638  -17.0235  -16.8289  -11.0402   -9.7810   -8.9756   -7.8445   -6.7394   -5.5542   -5.4605
   -1.5421   -1.1187   -0.1485    0.2223    1.5781    3.7778    4.7962    6.8649    7.0923    7.7171
   11.3815   12.3756   12.6621   13.9478   15.0131   15.3660   15.6605   18.7153   21.0672   21.3767
   24.5246   25.3215   27.7220   28.7319   35.0283   37.2052   40.0203   40.9898   48.3806   49.5017
   57.0641   93.0454
  20  1  -78.4148  -42.7978  -42.6497  -42.6294  -32.6812  -32.6709  -32.6233  -32.6149  -32.6105  -32.6095
         -32.5640  -17.0480  -16.8084  -10.4827   -9.8120   -8.7620   -8.0447   -7.2352   -6.5634   -5.0819
   -1.8828   -1.0553   -0.7975    0.5413    2.6796    5.2140    5.5422    6.8424    7.1721    8.1647
   10.0460   10.4903   11.8785   12.2575   14.4762   15.6348   18.4696   19.0160   20.5401   21.6182
   24.1852   26.3844   29.1841   30.0536   33.2221   37.0689   37.6372   40.9461   41.4732   56.5158
   57.0500   78.6925
  21  1  -78.4148  -42.7978  -42.6497  -42.6294  -32.6812  -32.6709  -32.6233  -32.6149  -32.6105  -32.6095
         -32.5640  -17.0480  -16.8084  -10.4827   -9.8120   -8.7620   -8.0447   -7.2352   -6.5634   -5.0819
   -1.8828   -1.0553   -0.7975    0.5413    2.6796    5.2140    5.5422    6.8424    7.1721    8.1647
   10.0460   10.4903   11.8785   12.2575   14.4762   15.6348   18.4696   19.0160   20.5401   21.6182
   24.1852   26.3844   29.1841   30.0536   33.2221   37.0689   37.6372   40.9461   41.4732   56.5158
   57.0500   78.6925
  22  1  -78.4142  -42.8380  -42.6498  -42.5873  -32.6823  -32.6687  -32.6162  -32.6144  -32.6095  -32.6064
         -32.5638  -17.0235  -16.8289  -11.0402   -9.7810   -8.9756   -7.8445   -6.7394   -5.5542   -5.4605
   -1.5421   -1.1187   -0.1485    0.2223    1.5781    3.7778    4.7962    6.8649    7.0923    7.7171
   11.3815   12.3756   12.6621   13.9478   15.0131   15.3660   15.6605   18.7153   21.0672   21.3767
   24.5246   25.3215   27.7220   28.7319   35.0283   37.2052   40.0204   40.9898   48.3806   49.5017
   57.0641   93.0454
siesta: Fermi energy =      -3.420134 eV

siesta: Program's energy decomposition (eV):
siesta: Ebs     =     -1047.033916
siesta: Eions   =     10757.993862
siesta: Ena     =      1699.580665
siesta: Ekin    =      2951.250551
siesta: Enl     =     -1196.515834
siesta: Eso     =         0.000000
siesta: Edftu   =         0.000000
siesta: DEna    =        53.409446
siesta: DUscf   =         2.989098
siesta: DUext   =         0.000000
siesta: Ex      =      -623.989715
siesta: Ec      =       -68.251610
siesta: Exc     =      -692.241325
siesta: EbV     =         0.000000
siesta: eta*DQ  =         0.000000
siesta: Emadel  =         0.000000
siesta: Emeta   =         0.000000
siesta: Emolmec =         0.000000
siesta: Ekinion =         0.000000
siesta: Eharris =     -7939.521261
siesta: Etot    =     -7939.521261
siesta: FreeEng =     -7939.521261

siesta: Final energy (eV):
siesta:  Band Struct. =   -1047.033916
siesta:       Kinetic =    2951.250551
siesta:       Hartree =   27679.117259
siesta:         Edftu =       0.000000
siesta:       Eso     =       0.000000
siesta:    Ext. field =       0.000000
siesta:         Exch. =    -623.989715
siesta:         Corr. =     -68.251610
siesta:     Bulk bias =       0.000000
siesta:   Exch.-corr. =    -692.241325
siesta:  Ion-electron =  -58447.941988
siesta:       Ion-ion =   20570.294242
siesta:       Ekinion =       0.000000
siesta: D3 dispersion =       0.000000
siesta:         Total =   -7939.521261
siesta:         Fermi =      -3.420134

siesta: Atomic forces (eV/Ang):
siesta:      1    0.000000   -0.000000   -0.000000
siesta:      2   -0.000000    0.000000    0.666359
siesta:      3   -0.000000    0.000000   -0.666359
siesta: ----------------------------------------
siesta:    Tot    0.000000    0.000000   -0.000000

siesta: Stress tensor (static) (eV/Ang**3):
siesta:     0.010038    0.000000   -0.000000
siesta:     0.000000    0.010038   -0.000000
siesta:    -0.000000    0.000000    0.010027

siesta: Cell volume =        214.828427 Ang**3

siesta: Pressure (static):
siesta:                Solid            Molecule  Units
siesta:          -0.00010928         -0.00007325  Ry/Bohr**3
siesta:          -0.01003400         -0.00672539  eV/Ang**3
siesta:         -16.07641456        -10.77538086  kBar
(Free)E+ p_basis*V_orbitals  =       -7938.260724
(Free)Eharris+ p_basis*V_orbitals  =       -7938.260724

siesta: Electric dipole (a.u.)  =    0.000000    0.000000    0.000000
siesta: Electric dipole (Debye) =    0.000000    0.000000    0.000000

dhscf: Vacuum level (max, mean) =    0.404318    0.393552 eV

cite: Please see "WS2.bib" for an exhaustive BiBTeX file.
cite: Please clearly indicate Siesta version in published work: MaX-1.0-55-g0612142bc
cite: This calculation has made use of the following articles
cite: which are encouraged to be cited in a published work.
        Primary SIESTA paper
          DOI: www.doi.org/10.1088/0953-8984/14/11/302


>> End of run:  23-JUL-2023  15:05:25
Job completed
