<preamble>

<basis_specs>
===============================================================================
W                    Z=  74    Mass=  183.85        Charge= 0.17977+309
Lmxo=2 Lmxkb= 3    BasisType=split      Semic=T
L=0  Nsemic=1  Cnfigmx=6
          i=1  nzeta=1  polorb=0  (5s)  (semicore shell)
            splnorm:   0.15000    
               vcte:    0.0000    
               rinn:    0.0000    
               qcoe:    0.0000    
               qyuk:    0.0000    
               qwid:   0.10000E-01
                rcs:    2.6404    
            lambdas:    1.0000    
          i=2  nzeta=2  polorb=1  (6s)  (to be polarized perturbatively)
            splnorm:   0.15000    
               vcte:    0.0000    
               rinn:    0.0000    
               qcoe:    0.0000    
               qyuk:    0.0000    
               qwid:   0.10000E-01
                rcs:    6.1776      5.8033    
            lambdas:    1.0000      1.0000    
L=1  Nsemic=1  Cnfigmx=6
          i=1  nzeta=1  polorb=0  (5p)  (semicore shell)
            splnorm:   0.15000    
               vcte:    0.0000    
               rinn:    0.0000    
               qcoe:    0.0000    
               qyuk:    0.0000    
               qwid:   0.10000E-01
                rcs:    3.0677    
            lambdas:    1.0000    
          i=2  nzeta=0  polorb=0  (6p)  (perturbative polarization orbital) (from 6s)
L=2  Nsemic=0  Cnfigmx=5
          i=1  nzeta=2  polorb=0  (5d)
            splnorm:   0.15000    
               vcte:    0.0000    
               rinn:    0.0000    
               qcoe:    0.0000    
               qyuk:    0.0000    
               qwid:   0.10000E-01
                rcs:    5.0578      3.5199    
            lambdas:    1.0000      1.0000    
-------------------------------------------------------------------------------
L=0  Nkbl=2  erefs: 0.17977+309 0.17977+309
L=1  Nkbl=2  erefs: 0.17977+309 0.17977+309
L=2  Nkbl=1  erefs: 0.17977+309
L=3  Nkbl=1  erefs: 0.17977+309
===============================================================================
</basis_specs>

<pseudopotential_header>
 W  pw nrl pcec
 ONCVPSP-3.2018-03-09Hamann's oncvpsp                        
 5s 2.00  r= 1.61/5p 6.00  r= 1.61/5d 4.00  r= 1.61/5f 0.00  r= 2.02/   5s:5p:5d:6s:
</pseudopotential_header>
</preamble>
W                             # Symbol
W                             # Label
   74                         # Atomic number
     14.0000000000                             # Valence charge
     183.850000000        # Mass 
     277.482063533        # Self energy 
   2   7                      # Lmax for basis, no. of nl orbitals 
   3   8                      # Lmax for projectors, no. of nl KB projectors
# PAOs:__________________________
  0  5  1  0  2.000000   #orbital l, n, z, is_polarized, population
 500    0.5291339374976284E-02     2.640378348113166     # npts, delta, cutoff
     0.000000000000000        0.8073109056827339    
    0.5291339374976284E-02    0.8073771019680408    
    0.1058267874995257E-01    0.8075780042102769    
    0.1587401812492885E-01    0.8079127152201866    
    0.2116535749990514E-01    0.8083810459030837    
    0.2645669687488142E-01    0.8089827316897098    
    0.3174803624985770E-01    0.8097174326706692    
    0.3703937562483399E-01    0.8105847337809531    
    0.4233071499981027E-01    0.8115841450267608    
    0.4762205437478656E-01    0.8127151017536818    
    0.5291339374976285E-01    0.8139769649559512    
    0.5820473312473913E-01    0.8153690216266350    
    0.6349607249971541E-01    0.8168904851485871    
    0.6878741187469170E-01    0.8185404957260390    
    0.7407875124966798E-01    0.8203181208566367    
    0.7937009062464427E-01    0.8222223558437698    
    0.8466142999962055E-01    0.8242521243489707    
    0.8995276937459683E-01    0.8264062789841866    
    0.9524410874957312E-01    0.8286836019436880    
    0.1005354481245494        0.8310828056753600    
    0.1058267874995257        0.8336025335911227    
    0.1111181268745020        0.8362413608161700    
    0.1164094662494783        0.8389977949767574    
    0.1217008056244545        0.8418702770261767    
    0.1269921449994308        0.8448571821086100    
    0.1322834843744071        0.8479568204604648    
    0.1375748237493834        0.8511674383488305    
    0.1428661631243597        0.8544872190466550    
    0.1481575024993360        0.8579142838441798    
    0.1534488418743122        0.8614466930962305    
    0.1587401812492885        0.8650824473048612    
    0.1640315206242648        0.8688194882368740    
    0.1693228599992411        0.8726557000756945    
    0.1746141993742174        0.8765889106070676    
    0.1799055387491937        0.8806168924380099    
    0.1851968781241700        0.8847373642484309    
    0.1904882174991462        0.8889479920748230    
    0.1957795568741225        0.8932463906253743    
    0.2010708962490988        0.8976301246258530    
    0.2063622356240751        0.9020967101955869    
    0.2116535749990514        0.9066436162528068    
    0.2169449143740277        0.9112682659486596    
    0.2222362537490039        0.9159680381290926    
    0.2275275931239802        0.9207402688238518    
    0.2328189324989565        0.9255822527617811    
    0.2381102718739328        0.9304912449115706    
    0.2434016112489091        0.9354644620471400    
    0.2486929506238854        0.9404990843367155    
    0.2539842899988616        0.9455922569547259    
    0.2592756293738379        0.9507410917155946    
    0.2645669687488142        0.9559426687284377    
    0.2698583081237905        0.9611940380716908    
    0.2751496474987668        0.9664922214867012    
    0.2804409868737431        0.9718342140891945    
    0.2857323262487194        0.9772169860975894    
    0.2910236656236956        0.9826374845771148    
    0.2963150049986719        0.9880926351985717    
    0.3016063443736482        0.9935793440106683    
    0.3068976837486245        0.9990944992247718    
    0.3121890231236008         1.004634973010911    
    0.3174803624985771         1.010197623303874    
    0.3227717018735534         1.015779295618148    
    0.3280630412485296         1.021376824870577    
    0.3333543806235059         1.026987037209403    
    0.3386457199984822         1.032606751848526    
    0.3439370593734585         1.038232782905655    
    0.3492283987484348         1.043861941243143    
    0.3545197381234110         1.049491036310130    
    0.3598110774983873         1.055116877984794    
    0.3651024168733636         1.060736278415289    
    0.3703937562483399         1.066346053858172    
    0.3756850956233162         1.071943026512868    
    0.3809764349982925         1.077524026350953    
    0.3862677743732688         1.083085892938819    
    0.3915591137482450         1.088625477252455    
    0.3968504531232213         1.094139643482965    
    0.4021417924981976         1.099625270831464    
    0.4074331318731739         1.105079255292057    
    0.4127244712481502         1.110498511421499    
    0.4180158106231265         1.115879974094272    
    0.4233071499981028         1.121220600241665    
    0.4285984893730790         1.126517370573605    
    0.4338898287480553         1.131767291281886    
    0.4391811681230316         1.136967395723487    
    0.4444725074980079         1.142114746082730    
    0.4497638468729842         1.147206435010931    
    0.4550551862479604         1.152239587242349    
    0.4603465256229368         1.157211361185139    
    0.4656378649979130         1.162118950486094    
    0.4709292043728893         1.166959585567986    
    0.4762205437478656         1.171730535138302    
    0.4815118831228419         1.176429107668193    
    0.4868032224978182         1.181052652840560    
    0.4920945618727944         1.185598562966087    
    0.4973859012477707         1.190064274366210    
    0.5026772406227470         1.194447268721912    
    0.5079685799977233         1.198745074387352    
    0.5132599193726995         1.202955267667339    
    0.5185512587476758         1.207075474057678    
    0.5238425981226521         1.211103369447463    
    0.5291339374976284         1.215036681282465    
    0.5344252768726048         1.218873189688725    
    0.5397166162475810         1.222610728555569    
    0.5450079556225573         1.226247186577274    
    0.5502992949975336         1.229780508252657    
    0.5555906343725099         1.233208694841876    
    0.5608819737474862         1.236529805279844    
    0.5661733131224624         1.239741957045629    
    0.5714646524974387         1.242843326987281    
    0.5767559918724150         1.245832152101594    
    0.5820473312473913         1.248706730268349    
    0.5873386706223676         1.251465420938587    
    0.5926300099973438         1.254106645776573    
    0.5979213493723201         1.256628889255128    
    0.6032126887472964         1.259030699204056    
    0.6085040281222727         1.261310687311418    
    0.6137953674972489         1.263467529577528    
    0.6190867068722252         1.265499966721504    
    0.6243780462472015         1.267406804540319    
    0.6296693856221779         1.269186914220304    
    0.6349607249971542         1.270839232601166    
    0.6402520643721304         1.272362762392548    
    0.6455434037471067         1.273756572343271    
    0.6508347431220830         1.275019797363439    
    0.6561260824970593         1.276151638599596    
    0.6614174218720356         1.277151363463232    
    0.6667087612470118         1.278018305612916    
    0.6720001006219881         1.278751864890435    
    0.6772914399969644         1.279351507211349    
    0.6825827793719407         1.279816764410390    
    0.6878741187469170         1.280147234042217    
    0.6931654581218932         1.280342579138046    
    0.6984567974968695         1.280402527918763    
    0.7037481368718458         1.280326873465112    
    0.7090394762468221         1.280115473345623    
    0.7143308156217983         1.279768249203002    
    0.7196221549967746         1.279285186299702    
    0.7249134943717509         1.278666333023453    
    0.7302048337467273         1.277911800353563    
    0.7354961731217036         1.277021761288836    
    0.7407875124966798         1.275996450237987    
    0.7460788518716561         1.274836162373450    
    0.7513701912466324         1.273541252949534    
    0.7566615306216087         1.272112136585877    
    0.7619528699965850         1.270549286517197    
    0.7672442093715612         1.268853233810371    
    0.7725355487465375         1.267024566549851    
    0.7778268881215138         1.265063928992510    
    0.7831182274964901         1.262972020692982    
    0.7884095668714663         1.260749595600613    
    0.7937009062464426         1.258397461129113    
    0.7989922456214189         1.255916477200077    
    0.8042835849963952         1.253307555261481    
    0.8095749243713715         1.250571657282336    
    0.8148662637463477         1.247709794724670    
    0.8201576031213240         1.244723027493979    
    0.8254489424963004         1.241612462869354    
    0.8307402818712767         1.238379254414468    
    0.8360316212462530         1.235024600870585    
    0.8413229606212292         1.231549745020398    
    0.8466142999962055         1.227955972611182    
    0.8519056393711818         1.224244611127462    
    0.8571969787461581         1.220417028489168    
    0.8624883181211344         1.216474632235226    
    0.8677796574961106         1.212418868296608    
    0.8730709968710869         1.208251219749227    
    0.8783623362460632         1.203973204959966    
    0.8836536756210395         1.199586376626848    
    0.8889450149960157         1.195092321232501    
    0.8942363543709920         1.190492657628632    
    0.8995276937459683         1.185789035416089    
    0.9048190331209446         1.180983133833033    
    0.9101103724959209         1.176076660625299    
    0.9154017118708971         1.171071350751392    
    0.9206930512458735         1.165968965137461    
    0.9259843906208498         1.160771289451886    
    0.9312757299958261         1.155480132869386    
    0.9365670693708024         1.150097326840088    
    0.9418584087457786         1.144624723862490    
    0.9471497481207549         1.139064196261289    
    0.9524410874957312         1.133417634970911    
    0.9577324268707075         1.127686948325602    
    0.9630237662456838         1.121874060856913    
    0.9683151056206600         1.115980912099353    
    0.9736064449956363         1.110009455405002    
    0.9788977843706126         1.103961656767791    
    0.9841891237455889         1.097839493658198    
    0.9894804631205651         1.091644953868998    
    0.9947718024955414         1.085380034372746    
     1.000063141870518         1.079046740191608    
     1.005354481245494         1.072647083280117    
     1.010645820620470         1.066183081421437    
     1.015937159995447         1.059656757137655    
     1.021228499370423         1.053070136614590    
     1.026519838745399         1.046425248641629    
     1.031811178120375         1.039724123566988    
     1.037102517495352         1.032968792268838    
     1.042393856870328         1.026161285142693    
     1.047685196245304         1.019303631105368    
     1.052976535620280         1.012397856615904    
     1.058267874995257         1.005445984713700    
     1.063559214370233        0.9984500340741504    
     1.068850553745210        0.9914120180820620    
     1.074141893120186        0.9843339439230046    
     1.079433232495162        0.9772178116928774    
     1.084724571870138        0.9700656135257851    
     1.090015911245115        0.9628793327404022    
     1.095307250620091        0.9556609430049946    
     1.100598589995067        0.9484124075210846    
     1.105889929370043        0.9411356782259893    
     1.111181268745020        0.9338326950141587    
     1.116472608119996        0.9265053849774008    
     1.121763947494972        0.9191556616640894    
     1.127055286869949        0.9117854243571769    
     1.132346626244925        0.9043965573712095    
     1.137637965619901        0.8969909293681391    
     1.142929304994877        0.8895703926919328    
     1.148220644369854        0.8821367827220158    
     1.153511983744830        0.8746919172453028    
     1.158803323119806        0.8672375958468072    
     1.164094662494783        0.8597755993188105    
     1.169386001869759        0.8523076890882973    
     1.174677341244735        0.8448356066626371    
     1.179968680619711        0.8373610730934491    
     1.185260019994688        0.8298857884582732    
     1.190551359369664        0.8224114313601983    
     1.195842698744640        0.8149396584450306    
     1.201134038119616        0.8074721039359275    
     1.206425377494593        0.8000103791854417    
     1.211716716869569        0.7925560722445937    
     1.217008056244545        0.7851107474488912    
     1.222299395619522        0.7776759450212158    
     1.227590734994498        0.7702531806911854    
     1.232882074369474        0.7628439453309136    
     1.238173413744450        0.7554497046070692    
     1.243464753119427        0.7480718986488420    
     1.248756092494403        0.7407119417317476    
     1.254047431869379        0.7333712219771450    
     1.259338771244356        0.7260511010671084    
     1.264630110619332        0.7187529139745692    
     1.269921449994308        0.7114779687086027    
     1.275212789369285        0.7042275460745208    
     1.280504128744261        0.6970028994486902    
     1.285795468119237        0.6898052545679346    
     1.291086807494213        0.6826358093332325    
     1.296378146869190        0.6754957336276132    
     1.301669486244166        0.6683861691481109    
     1.306960825619142        0.6613082292515314    
     1.312252164994119        0.6542629988139284    
     1.317543504369095        0.6472515341036392    
     1.322834843744071        0.6402748626676936    
     1.328126183119047        0.6333339832314829    
     1.333417522494024        0.6264298656115184    
     1.338708861869000        0.6195634506411710    
     1.344000201243976        0.6127356501092598    
     1.349291540618953        0.6059473467113028    
     1.354582879993929        0.5991993940133890    
     1.359874219368905        0.5924926164285356    
     1.365165558743881        0.5858278092053029    
     1.370456898118858        0.5792057384287193    
     1.375748237493834        0.5726271410333568    
     1.381039576868810        0.5660927248283024    
     1.386330916243786        0.5596031685341649    
     1.391622255618763        0.5531591218318392    
     1.396913594993739        0.5467612054230639    
     1.402204934368715        0.5404100111024450    
     1.407496273743692        0.5341061018411629    
     1.412787613118668        0.5278500118821347    
     1.418078952493644        0.5216422468463245    
     1.423370291868620        0.5154832838505119    
     1.428661631243597        0.5093735716362452    
     1.433952970618573        0.5033135307096579    
     1.439244309993549        0.4973035534925012    
     1.444535649368526        0.4913440044839762    
     1.449826988743502        0.4854352204334943    
     1.455118328118478        0.4795775105239174    
     1.460409667493455        0.4737711565649120    
     1.465701006868431        0.4680164132011555    
     1.470992346243407        0.4623135081213123    
     1.476283685618383        0.4566626422870166    
     1.481575024993360        0.4510639901653391    
     1.486866364368336        0.4455176999889380    
     1.492157703743312        0.4400238939856957    
     1.497449043118289        0.4345826686944593    
     1.502740382493265        0.4291940950894692    
     1.508031721868241        0.4238582191095266    
     1.513323061243217        0.4185750618033560    
     1.518614400618194        0.4133446196018930    
     1.523905739993170        0.4081668648638911    
     1.529197079368146        0.4030417457212221    
     1.534488418743122        0.3979691866913067    
     1.539779758118099        0.3929490889813246    
     1.545071097493075        0.3879813308048120    
     1.550362436868051        0.3830657677901595    
     1.555653776243028        0.3782022341254316    
     1.560945115618004        0.3733905393645312    
     1.566236454992980        0.3686304749655726    
     1.571527794367956        0.3639218107871895    
     1.576819133742933        0.3592642949099520    
     1.582110473117909        0.3546576599960793    
     1.587401812492885        0.3501016121863731    
     1.592693151867862        0.3455958380307902    
     1.597984491242838        0.3411400083947534    
     1.603275830617814        0.3367337723450384    
     1.608567169992790        0.3323767631056956    
     1.613858509367767        0.3280686038538134    
     1.619149848742743        0.3238088900588579    
     1.624441188117719        0.3195972252260996    
     1.629732527492695        0.3154332038356354    
     1.635023866867672        0.3113164156407597    
     1.640315206242648        0.3072464568808279    
     1.645606545617625        0.3032229152216148    
     1.650897884992601        0.2992453803395658    
     1.656189224367577        0.2953134406865508    
     1.661480563742553        0.2914266900559174    
     1.666771903117530        0.2875847164722505    
     1.672063242492506        0.2837871091126257    
     1.677354581867482        0.2800334578019097    
     1.682645921242458        0.2763233479413254    
     1.687937260617435        0.2726563695262472    
     1.693228599992411        0.2690321116168208    
     1.698519939367387        0.2654501636625418    
     1.703811278742364        0.2619101162077463    
     1.709102618117340        0.2584115600289955    
     1.714393957492316        0.2549540868826323    
     1.719685296867292        0.2515372894841519    
     1.724976636242269        0.2481607615398546    
     1.730267975617245        0.2448240979735540    
     1.735559314992221        0.2415268949434276    
     1.740850654367198        0.2382687499542662    
     1.746141993742174        0.2350492619433484    
     1.751433333117150        0.2318680313708589    
     1.756724672492126        0.2287246602976104    
     1.762016011867103        0.2256187524628166    
     1.767307351242079        0.2225499133590950    
     1.772598690617055        0.2195177503001768    
     1.777890029992031        0.2165218724888793    
     1.783181369367008        0.2135618910800084    
     1.788472708741984        0.2106374192401430    
     1.793764048116960        0.2077480722047014    
     1.799055387491937        0.2048934673315616    
     1.804346726866913        0.2020732241519724    
     1.809638066241889        0.1992869644184108    
     1.814929405616865        0.1965343121500675    
     1.820220744991842        0.1938148936753221    
     1.825512084366818        0.1911283376718147    
     1.830803423741794        0.1884742752040376    
     1.836094763116771        0.1858523397583714    
     1.841386102491747        0.1832621672761668    
     1.846677441866723        0.1807033961842157    
     1.851968781241700        0.1781756674232778    
     1.857260120616676        0.1756786244743109    
     1.862551459991652        0.1732119133830673    
     1.867842799366628        0.1707751827823674    
     1.873134138741605        0.1683680839127117    
     1.878425478116581        0.1659902706408671    
     1.883716817491557        0.1636413994770840    
     1.889008156866534        0.1613211295902696    
     1.894299496241510        0.1590291228217006    
     1.899590835616486        0.1567650436971746    
     1.904882174991462        0.1545285594374798    
     1.910173514366439        0.1523193399677872    
     1.915464853741415        0.1501370579252619    
     1.920756193116391        0.1479813886655439    
     1.926047532491368        0.1458520102677164    
     1.931338871866344        0.1437486035383977    
     1.936630211241320        0.1416708520142719    
     1.941921550616296        0.1396184419636275    
     1.947212889991273        0.1375910623867886    
     1.952504229366249        0.1355884050153033    
     1.957795568741225        0.1336101643104777    
     1.963086908116201        0.1316560374605485    
     1.968378247491178        0.1297257243771230    
     1.973669586866154        0.1278189276904994    
     1.978960926241130        0.1259353527444727    
     1.984252265616107        0.1240747075899650    
     1.989543604991083        0.1222367029780072    
     1.994834944366059        0.1204210523519584    
     2.000126283741035        0.1186274718388151    
     2.005417623116012        0.1168556802401792    
     2.010708962490988        0.1151053990221958    
     2.016000301865964        0.1133763523050138    
     2.021291641240941        0.1116682668516305    
     2.026582980615917        0.1099808720559810    
     2.031874319990893        0.1083138999308231    
     2.037165659365869        0.1066670850947270    
     2.042456998740846        0.1050401647587282    
     2.047748338115822        0.1034328787124895    
     2.053039677490798        0.1018449693098438    
     2.058331016865774        0.1002761814542363    
     2.063622356240751        0.9872626258340102E-01
     2.068913695615727        0.9719496265381064E-01
     2.074205034990703        0.9568203412474434E-01
     2.079496374365680        0.9418723194184984E-01
     2.084787713740656        0.9271031352069485E-01
     2.090079053115632        0.9125103872966144E-01
     2.095370392490608        0.8980916987273793E-01
     2.100661731865585        0.8838447167183362E-01
     2.105953071240561        0.8697671124915207E-01
     2.111244410615537        0.8558565810900226E-01
     2.116535749990514        0.8421108411951736E-01
     2.121827089365490        0.8285276349415804E-01
     2.127118428740466        0.8151047277285285E-01
     2.132409768115443        0.8018399080326459E-01
     2.137701107490419        0.7887309872157447E-01
     2.142992446865395        0.7757757993323981E-01
     2.148283786240372        0.7629722009357555E-01
     2.153575125615348        0.7503180708821962E-01
     2.158866464990324        0.7378113101333235E-01
     2.164157804365300        0.7254498415597734E-01
     2.169449143740277        0.7132316097408573E-01
     2.174740483115253        0.7011545807647801E-01
     2.180031822490229        0.6892167420279506E-01
     2.185323161865206        0.6774161020321606E-01
     2.190614501240182        0.6657506901840297E-01
     2.195905840615158        0.6542185565908505E-01
     2.201197179990134        0.6428177718574210E-01
     2.206488519365111        0.6315464268824372E-01
     2.211779858740087        0.6204026326531654E-01
     2.217071198115063        0.6093845200427849E-01
     2.222362537490040        0.5984902396045786E-01
     2.227653876865016        0.5877179613674510E-01
     2.232945216239992        0.5770658746313848E-01
     2.238236555614968        0.5665321877615400E-01
     2.243527894989945        0.5561151279852826E-01
     2.248819234364921        0.5458129411865113E-01
     2.254110573739897        0.5356238917015396E-01
     2.259401913114873        0.5255462621152269E-01
     2.264693252489850        0.5155783530560758E-01
     2.269984591864826        0.5057184829943918E-01
     2.275275931239802        0.4959649880381946E-01
     2.280567270614779        0.4863162217308128E-01
     2.285858609989755        0.4767705548487365E-01
     2.291149949364731        0.4673263752002185E-01
     2.296441288739707        0.4579820874232315E-01
     2.301732628114684        0.4487361127865925E-01
     2.307023967489660        0.4395868889891098E-01
     2.312315306864636        0.4305328699606838E-01
     2.317606646239613        0.4215725256640951E-01
     2.322897985614589        0.4127043418963112E-01
     2.328189324989565        0.4039268200930487E-01
     2.333480664364541        0.3952384771316548E-01
     2.338772003739518        0.3866378451359793E-01
     2.344063343114494        0.3781234712818636E-01
     2.349354682489470        0.3696939176036897E-01
     2.354646021864446        0.3613477608007179E-01
     2.359937361239423        0.3530835920466406E-01
     2.365228700614399        0.3449000167976851E-01
     2.370520039989375        0.3367956546028202E-01
     2.375811379364352        0.3287691389148977E-01
     2.381102718739328        0.3208191169016623E-01
     2.386394058114304        0.3129442492599827E-01
     2.391685397489280        0.3051432100288658E-01
     2.396976736864257        0.2974146864045244E-01
     2.402268076239233        0.2897573785562634E-01
     2.407559415614209        0.2821699994435779E-01
     2.412850754989186        0.2746512746332736E-01
     2.418142094364162        0.2671999421197307E-01
     2.423433433739138        0.2598147521440934E-01
     2.428724773114114        0.2524944670155429E-01
     2.434016112489091        0.2452378609334310E-01
     2.439307451864067        0.2380437198106405E-01
     2.444598791239043        0.2309108410971039E-01
     2.449890130614020        0.2238380336063106E-01
     2.455181469988996        0.2168241173409131E-01
     2.460472809363972        0.2098679233203776E-01
     2.465764148738948        0.2029682934096921E-01
     2.471055488113925        0.1961240801482390E-01
     2.476346827488901        0.1893341465815663E-01
     2.481638166863877        0.1825973660924387E-01
     2.486929506238853        0.1759126222338015E-01
     2.492220845613830        0.1692788085626510E-01
     2.497512184988806        0.1626948284751279E-01
     2.502803524363782        0.1561595950418223E-01
     2.508094863738759        0.1496720308458538E-01
     2.513386203113735        0.1432310678203018E-01
     2.518677542488712        0.1368356470874915E-01
     2.523968881863688        0.1304847187991676E-01
     2.529260221238664        0.1241772419784126E-01
     2.534551560613640        0.1179121843588576E-01
     2.539842899988617        0.1116885222325401E-01
     2.545134239363593        0.1055052402912149E-01
     2.550425578738569        0.9936133147229921E-02
     2.555716918113546        0.9325579680512652E-02
     2.561008257488522        0.8718764525321498E-02
     2.566299596863498        0.8115589358321264E-02
     2.571590936238474        0.7515956618301081E-02
     2.576882275613451        0.6919769493148836E-02
     2.582173614988427        0.6326931904509254E-02
     2.587464954363403        0.5737348492993758E-02
     2.592756293738379        0.5150924568452658E-02
     2.598047633113356        0.4567566238399224E-02
     2.603338972488332        0.3987180185233761E-02
     2.608630311863308        0.3409673779970643E-02
     2.613921651238285        0.2834955037803221E-02
     2.619212990613261        0.2262932603042736E-02
     2.624504329988237        0.1693512053496193E-02
     2.629795669363213        0.1126610311749224E-02
     2.635087008738190        0.5621357132430903E-03
     2.640378348113166         0.000000000000000    
  0  6  1  0  2.000000   #orbital l, n, z, is_polarized, population
 500    0.1237995543835596E-01     6.177597763739625     # npts, delta, cutoff
     0.000000000000000        0.4940187667615941    
    0.1237995543835596E-01    0.4941754224862052    
    0.2475991087671192E-01    0.4946459486132452    
    0.3713986631506788E-01    0.4954272300879495    
    0.4951982175342384E-01    0.4965148887290478    
    0.6189977719177980E-01    0.4979028248596872    
    0.7427973263013576E-01    0.4995832468110486    
    0.8665968806849172E-01    0.5015467084848825    