<?xml version="1.0" encoding="UTF-8" ?>
<psml version="1.1" energy_unit="hartree" length_unit="bohr"
 uuid="fcb8b1d0-159f-11ee-454c-def0b51f1855"
 xmlns="http://esl.cecam.org/PSML/ns/1.1">
<provenance creator="ONCVPSP-3.3.1+psml-3.3.1-75 (scalar-relativistic)"
 date="2023-06-28">
<annotation action="semilocal-pseudopotential-generation"
 action-cont="projectors-generation" />
<input-file name="oncvpsp-input">
<![CDATA[# ATOM AND REFERENCE CONFIGURATION
# atsym  z   nc   nv     iexc    psfile
  W 74.00    9    5       3      upf
#
#   n    l    f        energy (Ha)
    1    0    2.00
    2    0    2.00
    2    1    6.00
    3    0    2.00
    3    1    6.00
    3    2   10.00
    4    0    2.00
    4    1    6.00
    4    2   10.00
    4    3   14.00
    5    0    2.00
    5    1    6.00
    6    0    2.00
    5    2    4.00
#
# PSEUDOPOTENTIAL AND OPTIMIZATION
# lmax
    3
#
#   l,   rc,      ep,       ncon, nbas, qcut
    0   2.14508  -2.91404    5    8   7.75777
    1   2.19687  -1.59428    5    8   7.39083
    2   1.90387  -0.17204    5    8   8.12535
    3   3.03164  -1.22980    5    8   7.15988
#
# LOCAL POTENTIAL
# lloc, lpopt,  rc(5),   dvloc0
    4    5   1.64995      0.00000
#
# VANDERBILT-KLEINMAN-BYLANDER PROJECTORs
# l, nproj, debl
    0    2   2.69681
    1    2   1.54034
    2    2   1.03812
    3    2   1.31707
#
# MODEL CORE CHARGE
# icmod, fcfact, rcfact
    0   0.00000   0.00000
#
# LOG DERIVATIVE ANALYSIS
# epsh1, epsh2, depsh
   -5.00    3.00    0.02
#
# OUTPUT GRID
# rlmax, drl
    6.00    0.01
#
# TEST CONFIGURATIONS
# ncnf
    0
# nvcnf
#   n    l    f
]]>
</input-file>
</provenance>
<pseudo-atom-spec atomic-label="W" atomic-number="74" z-pseudo="28"
 flavor="Hamann&apos;s oncvpsp" relativity="scalar" spin-dft="no"
 core-corrections="no">
<annotation pseudo-energy="-270.888919036" cutoff_hint_low="21"
 cutoff_hint_normal="23" cutoff_hint_high="27" />
<exchange-correlation>
<annotation oncvpsp-xc-code="3"
 oncvpsp-xc-type="LDA -- Ceperley-Alder Perdew-Zunger" />
<libxc-info number-of-functionals="2">
<functional name="Slater exchange (LDA)" type="exchange" id="1" />
<functional name="Perdew &amp; Zunger (LDA)" type="correlation" id="9" />
</libxc-info>
</exchange-correlation>
<valence-configuration total-valence-charge="28">
<shell n="4" l="f" occupation="14" />
<shell n="5" l="s" occupation="2" />
<shell n="5" l="p" occupation="6" />
<shell n="6" l="s" occupation="2" />
<shell n="5" l="d" occupation="4" />
</valence-configuration>
</pseudo-atom-spec>
<grid npts="458">
<annotation type="sampled from oncvpsp log grid"
 recipe="r(i:1..N) = r1*exp(a*(i-1)) + r=0; resampled"
 recipe-cont="r1: scale; a: step" scale="0.675675675676E-05"
 step="0.119285708653E-01" delta="0.500000000000E-02" rmax="44.3907762595" />
<grid-data>
  0.000000000000E+00  5.008898274364E-03  1.012493979345E-02  1.518902421755E-02
  2.022377266067E-02  2.536833196880E-02  3.070295048932E-02  3.585310515037E-02
  4.088014357042E-02  4.605932164004E-02  5.127930729975E-02  5.641391631537E-02
  6.206265493084E-02  6.746739433111E-02  7.247312905385E-02  7.785026362628E-02
  8.362635401292E-02  8.876581095806E-02  9.422112548187E-02  1.000117093648E-01
  1.061581673846E-01  1.113462160423E-01  1.167878094769E-01  1.224953386582E-01
  1.284818001142E-01  1.347608255254E-01  1.413467127651E-01  1.464965004517E-01
  1.518339141021E-01  1.573657896297E-01  1.630992120055E-01  1.690415243328E-01
  1.752003372510E-01  1.815835386839E-01  1.881993039416E-01  1.950561061912E-01
  2.021627273089E-01  2.095282691274E-01  2.145871196573E-01  2.197681110743E-01
  2.250741923480E-01  2.305083836481E-01  2.360737780629E-01  2.417735433604E-01
  2.476109237913E-01  2.535892419353E-01  2.597119005926E-01  2.659823847205E-01
  2.724042634172E-01  2.789811919532E-01  2.857169138517E-01  2.926152630197E-01
  2.996801659301E-01  3.069156438563E-01  3.143258151616E-01  3.219148976428E-01
  3.296872109315E-01  3.376471789522E-01  3.457993324409E-01  3.541483115233E-01
  3.626988683567E-01  3.714558698343E-01  3.804243003556E-01  3.896092646634E-01
  3.990159907494E-01  4.086498328301E-01  4.185162743939E-01  4.235384696867E-01
  4.286209313229E-01  4.337643824988E-01  4.389695550888E-01  4.442371897498E-01
  4.495680360268E-01  4.549628524592E-01  4.604224066887E-01  4.659474755689E-01
  4.715388452758E-01  4.771973114191E-01  4.829236791561E-01  4.887187633060E-01
  4.945833884656E-01  5.005183891272E-01  5.065246097968E-01  5.126029051143E-01
  5.187541399757E-01  5.249791896554E-01  5.312789399313E-01  5.376542872104E-01
  5.441061386570E-01  5.506354123208E-01  5.572430372687E-01  5.639299537159E-01
  5.706971131605E-01  5.775454785184E-01  5.844760242607E-01  5.914897365518E-01
  5.985876133904E-01  6.057706647511E-01  6.130399127281E-01  6.203963916808E-01
  6.278411483810E-01  6.353752421616E-01  6.429997450675E-01  6.507157420083E-01
  6.585243309124E-01  6.664266228834E-01  6.744237423580E-01  6.825168272663E-01
  6.907070291935E-01  6.989955135438E-01  7.073834597063E-01  7.158720612228E-01
  7.244625259575E-01  7.331560762690E-01  7.419539491842E-01  7.508573965744E-01
  7.598676853333E-01  7.689860975573E-01  7.782139307280E-01  7.875524978967E-01
  7.970031278715E-01  8.065671654059E-01  8.162459713908E-01  8.260409230475E-01
  8.359534141241E-01  8.459848550936E-01  8.561366733547E-01  8.664103134349E-01
  8.768072371962E-01  8.873289240425E-01  8.979768711310E-01  9.087525935846E-01
  9.196576247076E-01  9.306935162041E-01  9.418618383985E-01  9.531641804593E-01
  9.646021506248E-01  9.761773764323E-01  9.878915049495E-01  9.997462030089E-01
  1.011743157445E+00  1.023884075334E+00  1.036170684238E+00  1.048604732449E+00
  1.061187989239E+00  1.073922245109E+00  1.086809312051E+00  1.099851023795E+00
  1.113049236081E+00  1.126405826914E+00  1.139922696837E+00  1.153601769199E+00
  1.167444990429E+00  1.181454330314E+00  1.195631782278E+00  1.209979363666E+00
  1.224499116030E+00  1.239193105422E+00  1.254063422687E+00  1.269112183759E+00
  1.284341529964E+00  1.299753628324E+00  1.315350671864E+00  1.331134879926E+00
  1.347108498485E+00  1.363273800467E+00  1.379633086073E+00  1.396188683106E+00
  1.412942947303E+00  1.429898262670E+00  1.447057041823E+00  1.464421726324E+00
  1.481994787040E+00  1.499778724485E+00  1.517776069179E+00  1.535989382009E+00
  1.554421254593E+00  1.573074309648E+00  1.591951201364E+00  1.611054615780E+00
  1.630387271169E+00  1.649951918424E+00  1.669751341445E+00  1.689788357542E+00
  1.710065817832E+00  1.730586607646E+00  1.751353646938E+00  1.772369890701E+00
  1.793638329390E+00  1.815161989343E+00  1.836943933215E+00  1.858987260413E+00
  1.881295107538E+00  1.903870648829E+00  1.926717096615E+00  1.949837701774E+00
  1.973235754195E+00  1.996914583246E+00  2.020877558245E+00  2.045128088943E+00
  2.069669626011E+00  2.094505661523E+00  2.119639729461E+00  2.145075406215E+00
  2.170816311089E+00  2.196866106822E+00  2.223228500104E+00  2.249907242105E+00
  2.276906129011E+00  2.304229002559E+00  2.331879750590E+00  2.359862307597E+00
  2.388180655288E+00  2.416838823151E+00  2.445840889029E+00  2.475190979697E+00
  2.504893271454E+00  2.534951990711E+00  2.565371414600E+00  2.596155871575E+00
  2.627309742034E+00  2.658837458938E+00  2.690743508446E+00  2.723032430547E+00
  2.755708819713E+00  2.788777325550E+00  2.822242653457E+00  2.856109565298E+00
  2.890382880082E+00  2.925067474643E+00  2.960168284338E+00  2.995690303750E+00
  3.031638587395E+00  3.068018250444E+00  3.104834469450E+00  3.142092483083E+00
  3.179797592880E+00  3.217955163994E+00  3.256570625962E+00  3.295649473474E+00
  3.335197267156E+00  3.375219634362E+00  3.415722269974E+00  3.456710937214E+00
  3.498191468460E+00  3.540169766082E+00  3.582651803275E+00  3.625643624914E+00
  3.669151348413E+00  3.713181164594E+00  3.757739338569E+00  3.802832210632E+00
  3.848466197159E+00  3.894647791525E+00  3.941383565024E+00  3.988680167804E+00
  4.036544329817E+00  4.084982861775E+00  4.134002656117E+00  4.183610687990E+00
  4.233814016246E+00  4.284619784441E+00  4.336035221854E+00  4.388067644516E+00
  4.440724456251E+00  4.494013149726E+00  4.547941307522E+00  4.602516603213E+00
  4.657746802451E+00  4.713639764081E+00  4.770203441249E+00  4.827445882544E+00
  4.885375233135E+00  4.943999735933E+00  5.003327732764E+00  5.063367665557E+00
  5.124128077544E+00  5.185617614474E+00  5.247845025848E+00  5.310819166158E+00
  5.374548996152E+00  5.439043584106E+00  5.504312107115E+00  5.570363852400E+00
  5.637208218629E+00  5.704854717253E+00  5.773312973860E+00  5.842592729546E+00
  5.912703842301E+00  5.983656288408E+00  6.055460163869E+00  6.128125685836E+00
  6.201663194066E+00  6.276083152394E+00  6.351396150223E+00  6.427612904026E+00
  6.504744258874E+00  6.582801189981E+00  6.661794804260E+00  6.741736341912E+00
  6.822637178014E+00  6.904508824151E+00  6.987362930040E+00  7.071211285201E+00
  7.156065820623E+00  7.241938610471E+00  7.328841873796E+00  7.416787976282E+00
  7.505789431997E+00  7.595858905181E+00  7.687009212044E+00  7.779253322588E+00
  7.872604362459E+00  7.967075614809E+00  8.062680522186E+00  8.159432688453E+00
  8.257345880714E+00  8.356434031283E+00  8.456711239658E+00  8.558191774534E+00
  8.660890075828E+00  8.764820756738E+00  8.869998605819E+00  8.976438589089E+00
  9.084155852158E+00  9.193165722384E+00  9.303483711053E+00  9.415125515585E+00
  9.528107021772E+00  9.642444306033E+00  9.758153637706E+00  9.875251481358E+00
  9.993754499135E+00  1.011367955312E+01  1.023504370776E+01  1.035786423225E+01
  1.048215860304E+01  1.060794450628E+01  1.073523984035E+01  1.086406271844E+01
  1.099443147106E+01  1.112636464871E+01  1.125988102450E+01  1.139499959679E+01
  1.153173959195E+01  1.167012046706E+01  1.181016191266E+01  1.195188385561E+01
  1.209530646188E+01  1.224045013942E+01  1.238733554109E+01  1.253598356759E+01
  1.268641537040E+01  1.283865235484E+01  1.299271618310E+01  1.314862877730E+01
  1.330641232263E+01  1.346608927050E+01  1.362768234174E+01  1.379121452985E+01
  1.395670910420E+01  1.412418961345E+01  1.429367988882E+01  1.446520404748E+01
  1.463878649605E+01  1.481445193400E+01  1.499222535721E+01  1.517213206150E+01
  1.535419764624E+01  1.553844801799E+01  1.572490939421E+01  1.591360830694E+01
  1.610457160662E+01  1.629782646590E+01  1.649340038349E+01  1.669132118809E+01
  1.689161704235E+01  1.709431644686E+01  1.729944824422E+01  1.750704162315E+01
  1.771712612263E+01  1.792973163610E+01  1.814488841573E+01  1.836262707672E+01
  1.858297860164E+01  1.880597434486E+01  1.903164603700E+01  1.926002578944E+01
  1.949114609892E+01  1.972503985211E+01  1.996174033033E+01  2.020128121429E+01
  2.044369658887E+01  2.068902094793E+01  2.093728919931E+01  2.118853666970E+01
  2.144279910974E+01  2.170011269905E+01  2.196051405144E+01  2.222404022006E+01
  2.249072870270E+01  2.276061744713E+01  2.303374485650E+01  2.331014979478E+01
  2.358987159231E+01  2.387295005142E+01  2.415942545204E+01  2.444933855746E+01
  2.474273062015E+01  2.503964338759E+01  2.534011910824E+01  2.564420053754E+01
  2.595193094399E+01  2.626335411532E+01  2.657851436471E+01  2.689745653708E+01
  2.722022601553E+01  2.754686872771E+01  2.787743115245E+01  2.821196032628E+01
  2.855050385019E+01  2.889310989639E+01  2.923982721515E+01  2.959070514173E+01
  2.994579360343E+01  3.030514312667E+01  3.066880484419E+01  3.103683050232E+01
  3.140927246835E+01  3.178618373797E+01  3.216761794283E+01  3.255362935814E+01
  3.294427291044E+01  3.333960418536E+01  3.373967943559E+01  3.414455558882E+01
  3.455429025588E+01  3.496894173895E+01  3.538856903982E+01  3.581323186830E+01
  3.624299065072E+01  3.667790653853E+01  3.711804141699E+01  3.756345791399E+01
  3.801421940896E+01  3.847039004187E+01  3.893203472237E+01  3.939921913904E+01
  3.987200976871E+01  4.035047388593E+01  4.083467957256E+01  4.132469572743E+01
  4.182059207616E+01  4.232243918108E+01  4.283030845125E+01  4.334427215266E+01
  4.386440341850E+01  4.439077625952E+01
</grid-data>
</grid>
<valence-charge total-charge="28" is-unscreening-charge="yes"
 rescaled-to-z-pseudo="no">
<radfunc>
<data npts="458">
  3.707874026880E+00  3.708699335407E+00  3.711245840683E+00  3.715460728913E+00
  3.721320222406E+00  3.729023702158E+00  3.738839840512E+00  3.750077649122E+00
  3.762710181581E+00  3.777437506006E+00  3.794032356804E+00  3.812063455625E+00
  3.833846350339E+00  3.856586316301E+00  3.879292920202E+00  3.905435541584E+00
  3.935524168614E+00  3.964030215019E+00  3.996059758297E+00  4.032036491738E+00
  4.072432089150E+00  4.108280629503E+00  4.147586565401E+00  4.190670092829E+00
  4.237878573186E+00  4.289588402274E+00  4.346206941840E+00  4.392155769971E+00
  4.441311292247E+00  4.493883663115E+00  4.550095116221E+00  4.610180485042E+00
  4.674387738547E+00  4.742978535914E+00  4.816228806136E+00  4.894429360640E+00
  4.977886549885E+00  5.066922978330E+00  5.129547175598E+00  5.194906647689E+00
  5.263110092478E+00  5.334270023837E+00  5.408502931289E+00  5.485929457709E+00
  5.566674597874E+00  5.650867920940E+00  5.738643820203E+00  5.830141793736E+00
  5.925506759711E+00  6.024889410369E+00  6.128446608659E+00  6.236341831526E+00
  6.348745663639E+00  6.465836344925E+00  6.587800374673E+00  6.714833173957E+00
  6.847139806810E+00  6.984935758730E+00  7.128447768685E+00  7.277914707695E+00
  7.433588493132E+00  7.595735023023E+00  7.764635108656E+00  7.940585376541E+00
  8.123899102130E+00  8.314906927419E+00  8.513957402577E+00  8.616612530897E+00
  8.721417277841E+00  8.828420323502E+00  8.937671456075E+00  9.049221544063E+00
  9.163122498446E+00  9.279427223617E+00  9.398189555779E+00  9.519464187404E+00
  9.643306576271E+00  9.769772837481E+00  9.898919616759E+00  1.003080394326E+01
  1.016548305995E+01  1.030301422968E+01  1.044345451466E+01  1.058686052742E+01
  1.073328815080E+01  1.088279222472E+01  1.103542619735E+01  1.119124173815E+01
  1.135028831044E+01  1.151261270083E+01  1.167825850315E+01  1.184726555434E+01
  1.201966931991E+01  1.219550022664E+01  1.237478294034E+01  1.255753558666E+01
  1.274376891304E+01  1.293348539040E+01  1.312667825321E+01  1.332333047715E+01
  1.352341369394E+01  1.372688704348E+01  1.393369596393E+01  1.414377092125E+01
  1.435702608013E+01  1.457335791958E+01  1.479264379684E+01  1.501474046477E+01
  1.523948254879E+01  1.546668099069E+01  1.569612146807E+01  1.592756279948E+01
  1.616073534693E+01  1.639533942911E+01  1.663104376024E+01  1.686748393120E+01
  1.710426095173E+01  1.734093987384E+01  1.757704851894E+01  1.781207633268E+01
  1.804547339360E+01  1.827664960331E+01  1.850497408756E+01  1.872977483923E+01
  1.895033863543E+01  1.916591126207E+01  1.937569808005E+01  1.957886496759E+01
  1.977453967339E+01  1.996181361466E+01  2.013974415323E+01  2.030735738124E+01
  2.046365144562E+01  2.060760043768E+01  2.073815887000E+01  2.085426675856E+01
  2.095485532183E+01  2.103885330272E+01  2.110519391109E+01  2.115282237651E+01
  2.118070409121E+01  2.118783331286E+01  2.117324238556E+01  2.113601142523E+01
  2.107527840285E+01  2.099024954582E+01  2.088020996382E+01  2.074453439194E+01
  2.058269793011E+01  2.039428664469E+01  2.017900788539E+01  1.993670015958E+01
  1.966734239598E+01  1.937106242184E+01  1.904814447212E+01  1.869903554630E+01
  1.832435042905E+01  1.792487519475E+01  1.750156902406E+01  1.705556417316E+01
  1.658816395308E+01  1.610083859832E+01  1.559521893062E+01  1.507308775486E+01
  1.453636896008E+01  1.398711433859E+01  1.342748817999E+01  1.285974974346E+01
  1.228623376075E+01  1.170932917184E+01  1.113145634504E+01  1.055504308141E+01
  9.982499748261E+00  9.416193926989E+00  8.858424994615E+00  8.311399084852E+00
  7.777204891471E+00  7.257790783177E+00  6.754943693732E+00  6.270270232950E+00
  5.805180432899E+00  5.360874499072E+00  4.938332878914E+00  4.538309890875E+00
  4.161331077737E+00  3.807694359788E+00  3.477474968335E+00  3.170534042046E+00
  2.886530671203E+00  2.624937080978E+00  2.385056558189E+00  2.166043650157E+00
  1.966926102735E+00  1.786627960006E+00  1.623993230295E+00  1.477809556612E+00
  1.346831387563E+00  1.229802116649E+00  1.125474618859E+00  1.032629739580E+00
  9.500924175564E-01  8.767451842839E-01  8.115388972227E-01  7.535006652156E-01
  7.017390250647E-01  6.554465210151E-01  6.138999153827E-01  5.764583143660E-01
  5.425595750464E-01  5.117154057722E-01  4.835055085085E-01  4.575710914304E-01
  4.336080879923E-01  4.113603695633E-01  3.906131914291E-01  3.711870575769E-01
  3.529321340820E-01  3.357232877843E-01  3.194557794228E-01  3.040416008068E-01
  2.894064153407E-01  2.754870407265E-01  2.622294014958E-01  2.495868759896E-01
  2.375189657902E-01  2.259902234430E-01  2.149693845833E-01  2.044286615115E-01
  1.943431654325E-01  1.846904330681E-01  1.754500397377E-01  1.666032853030E-01
  1.581329419484E-01  1.500230541321E-01  1.422587816706E-01  1.348262762025E-01
  1.277125786757E-01  1.209055269841E-01  1.143936712776E-01  1.081661975269E-01
  1.022128584762E-01  9.652391155832E-02  9.109006332886E-02  8.590241998080E-02
  8.095244350579E-02  7.623191308054E-02  7.173289126739E-02  6.744769463203E-02
  6.336886839623E-02  5.948916475954E-02  5.580152454101E-02  5.229906180952E-02
  4.897505118958E-02  4.582291754895E-02  4.283622778434E-02  4.000868446291E-02
  3.733412105968E-02  3.480649858438E-02  3.241990338347E-02  3.016854593258E-02
  2.804676044662E-02  2.604900515094E-02  2.416986307198E-02  2.240404321981E-02
  2.074638204850E-02  1.919184509303E-02  1.773552869308E-02  1.637266172564E-02
  1.509860727856E-02  1.390886420684E-02  1.279906852267E-02  1.176499457847E-02
  1.080255600969E-02  9.907806411445E-03  9.076939729086E-03  8.306290349010E-03
  7.592332880916E-03  6.931681627661E-03  6.321089742982E-03  5.757448081109E-03
  5.237783745588E-03  4.759258347473E-03  4.319165985544E-03  3.914930963272E-03
  3.544105259009E-03  3.204365767296E-03  2.893511330309E-03  2.609459579280E-03
  2.350243606325E-03  2.114008487436E-03  1.899007677528E-03  1.703599298325E-03
  1.526242339637E-03  1.365492794136E-03  1.219999745173E-03  1.088501426467E-03
  9.698212717203E-04  8.628639712526E-04  7.666115518141E-04  6.801194946377E-04
  6.025129057114E-04  5.329827511077E-04  4.707821689777E-04  4.152228688293E-04
  3.656716271558E-04  3.215468876816E-04  2.823154732052E-04  2.474894148001E-04
  2.166229031185E-04  1.893093654924E-04  1.651786715120E-04  1.438944688177E-04
  1.251516499494E-04  1.086739502688E-04  9.421167621122E-05  8.153956242179E-05
  7.045475570572E-05  6.077492315783E-05  5.233648134264E-05  4.499294296691E-05
  3.861337712116E-05  3.308097886347E-05  2.829174367433E-05  2.415324212309E-05
  2.058348995036E-05  1.750990868420E-05  1.486837186545E-05  1.260233195716E-05
  1.066202304893E-05  9.003734536554E-06  7.589151055292E-06  6.384754068794E-06
  5.361280660451E-06  4.493235236488E-06  3.758450027114E-06  3.137690460071E-06
  2.614301677184E-06  2.173892666131E-06  1.804054684209E-06  1.494110856162E-06
  1.234894032020E-06  1.018550191892E-06  8.383648809627E-07  6.886103486019E-07
  5.644112492019E-07  4.616269384595E-07  3.767485665658E-07  3.068093287293E-07
  2.493063833096E-07  2.021330884105E-07  1.635203390359E-07  1.319859088951E-07
  1.062908138375E-07  8.540181791638E-08  6.845929854378E-08  5.474977444651E-08
  4.368247957191E-08  3.476943813276E-08  2.760856107482E-08  2.186934284620E-08
  1.728078990437E-08  1.362125936593E-08  1.070992803319E-08  8.399649151073E-09
  6.570987075265E-09  5.127248963266E-09  3.990358010858E-09  3.097434999396E-09
  2.397974324284E-09  1.851517547075E-09  1.425742134809E-09  1.094895678470E-09
  8.385167534096E-10  6.403929118216E-10  4.877142735556E-10  3.703879799778E-10
  2.804845509448E-10  2.117920750009E-10  1.594582896430E-10  1.197040795286E-10
  8.959483030008E-11  6.685850689758E-11  4.974134974321E-11  3.689376239590E-11
  2.728035403854E-11  2.010924580038E-11  1.477669110676E-11  1.082383083327E-11
  7.903032783102E-12  5.751776242933E-12  4.172456624137E-12  3.016819688459E-12
  2.174004000131E-12  1.561386041157E-12  1.117594832804E-12  7.972001547777E-13
  5.666873201562E-13  4.014175044045E-13  2.833403805245E-13  1.992789513229E-13
  1.396481555505E-13  9.750042137558E-14  2.625275243916E-14  1.780627239956E-14
  1.202462239923E-14  8.084393032186E-15  5.411004813806E-15  3.605285488881E-15
  2.391162348130E-15  1.578564254460E-15  1.037230086514E-15  6.783020597089E-16
  4.414500847218E-16  2.859074420502E-16  1.842592698223E-16  1.181592150401E-16
  7.539008581904E-17  4.785672506671E-17  3.022227830970E-17  1.898628429307E-17
  1.186462601526E-17  7.374657121112E-18  4.559060917508E-18  2.803021825956E-18
  1.713825036896E-18  1.041996973785E-18  6.299369812563E-19  3.786419884738E-19
  2.262723297258E-19  1.344233639484E-19  7.938308335421E-20  4.659721341408E-20
  2.718561848249E-20  1.576281916851E-20  9.082632139753E-21  5.200440001895E-21
  2.958597974991E-21  1.672306505494E-21  9.390657744565E-22  5.238320819364E-22
  2.902481349018E-22  1.597323675784E-22  8.730256425825E-23  4.738442386162E-23
  2.553772324679E-23  1.366562222383E-23  7.260062920794E-24  0.000000000000E+00
  0.000000000000E+00  0.000000000000E+00  0.000000000000E+00  0.000000000000E+00
  0.000000000000E+00  0.000000000000E+00  0.000000000000E+00  0.000000000000E+00
  0.000000000000E+00  0.000000000000E+00
</data>
</radfunc>
</valence-charge>
<semilocal-potentials set="scalar_relativistic">
<slps n="5" l="s" rc="2.17081631109" eref="-2.91403562152">
<radfunc>
<data npts="291">
 -2.319827048458E+01 -2.319857689026E+01 -2.319952224633E+01 -2.320108681134E+01
 -2.320326153307E+01 -2.320612007109E+01 -2.320976160912E+01 -2.321392923482E+01
 -2.321861240646E+01 -2.322406986541E+01 -2.323021635375E+01 -2.323689112440E+01
 -2.324494952415E+01 -2.325335576953E+01 -2.326174320852E+01 -2.327139166137E+01
 -2.328248534561E+01 -2.329298427436E+01 -2.330476751258E+01 -2.331798548243E+01
 -2.333280438476E+01 -2.334593463465E+01 -2.336030831867E+01 -2.337603509637E+01
 -2.339323254921E+01 -2.341202635704E+01 -2.343255037330E+01 -2.344916393849E+01
 -2.346689326463E+01 -2.348580357921E+01 -2.350596237284E+01 -2.352743920568E+01
 -2.355030545312E+01 -2.357463398133E+01 -2.360049874249E+01 -2.362797427833E+01
 -2.365713511978E+01 -2.368805506981E+01 -2.370968141379E+01 -2.373214254876E+01
 -2.375545863361E+01 -2.377964901133E+01 -2.380473202999E+01 -2.383072484678E+01
 -2.385764321429E+01 -2.388550124808E+01 -2.391431117478E+01 -2.394408305966E+01
 -2.397482451315E+01 -2.400654037539E+01 -2.403923237832E+01 -2.407289878468E+01
 -2.410753400351E+01 -2.414312818199E+01 -2.417966677323E+01 -2.421713008035E+01
 -2.425549277681E+01 -2.429472340356E+01 -2.433478384358E+01 -2.437562877479E+01
 -2.441720510230E+01 -2.445945137153E+01 -2.450229716373E+01 -2.454566247600E+01
 -2.458945708764E+01 -2.463357991573E+01 -2.467791836215E+01 -2.470012994469E+01
 -2.472234765526E+01 -2.474455388690E+01 -2.476673018920E+01 -2.478885724782E+01
 -2.481091486398E+01 -2.483288193416E+01 -2.485473642988E+01 -2.487645537770E+01
 -2.489801483940E+01 -2.491938989236E+01 -2.494055461028E+01 -2.496148204404E+01
 -2.498214420298E+01 -2.500251203649E+01 -2.502255541585E+01 -2.504224311658E+01
 -2.506154280111E+01 -2.508042100185E+01 -2.509884310475E+01 -2.511677333327E+01
 -2.513417473290E+01 -2.515100915603E+01 -2.516723724752E+01 -2.518281843067E+01
 -2.519771089379E+01 -2.521187157735E+01 -2.522525616177E+01 -2.523781905574E+01
 -2.524951338532E+01 -2.526029098363E+01 -2.527010238138E+01 -2.527889679810E+01
 -2.528662213423E+01 -2.529322496418E+01 -2.529865053028E+01 -2.530284273788E+01
 -2.530574415160E+01 -2.530729599289E+01 -2.530743813904E+01 -2.530610912381E+01
 -2.530324613987E+01 -2.529878504321E+01 -2.529266035989E+01 -2.528480529530E+01
 -2.527515174622E+01 -2.526363031617E+01 -2.525017033431E+01 -2.523469987835E+01
 -2.521714580194E+01 -2.519743376716E+01 -2.517548828251E+01 -2.515123274711E+01
 -2.512458950183E+01 -2.509547988796E+01 -2.506382431423E+01 -2.502954233308E+01
 -2.499255272690E+01 -2.495277360527E+01 -2.491012251415E+01 -2.486451655796E+01
 -2.481587253563E+01 -2.476410709166E+01 -2.470913688335E+01 -2.465087876515E+01
 -2.458924999139E+01 -2.452416843839E+01 -2.445555284703E+01 -2.438332308687E+01
 -2.430740044278E+01 -2.422770792496E+01 -2.414417060333E+01 -2.405671596678E+01
 -2.396527430817E+01 -2.386977913533E+01 -2.377016760838E+01 -2.366638100360E+01
 -2.355836520346E+01 -2.344607121263E+01 -2.332945569916E+01 -2.320848155994E+01
 -2.308311850898E+01 -2.295334368687E+01 -2.281914228935E+01 -2.268050821223E+01
 -2.253744470988E+01 -2.238996506340E+01 -2.223809325461E+01 -2.208186464098E+01
 -2.192132662611E+01 -2.175653931973E+01 -2.158757618040E+01 -2.141452463313E+01
 -2.123748665366E+01 -2.105657930976E+01 -2.087193524920E+01 -2.068370312304E+01
 -2.049204793139E+01 -2.029715127812E+01 -2.009921151941E+01 -1.989844378978E+01
 -1.969507988821E+01 -1.948936800547E+01 -1.928157227260E+01 -1.907197210973E+01
 -1.886086135317E+01 -1.864854713862E+01 -1.843534851806E+01 -1.822159478855E+01
 -1.800762351254E+01 -1.779377821162E+01 -1.758040571926E+01 -1.736785318302E+01
 -1.715646471366E+01 -1.694657768708E+01 -1.673851871596E+01 -1.653259932133E+01
 -1.632911134971E+01 -1.612832220009E+01 -1.593046994516E+01 -1.573575845488E+01
 -1.554429516653E+01 -1.535624790319E+01 -1.517170801952E+01 -1.499069945668E+01
 -1.481319312742E+01 -1.463910580327E+01 -1.446830054266E+01 -1.430058901387E+01
 -1.413573611387E+01 -1.397346735770E+01 -1.381347961995E+01 -1.365545593304E+01
 -1.349908520564E+01 -1.334408793018E+01 -1.319024918284E+01 -1.303746047705E+01
 -1.288577229385E+01 -1.273529968627E+01 -1.258628954179E+01 -1.243869357346E+01
 -1.229254186309E+01 -1.214786168170E+01 -1.200467664448E+01 -1.186300615970E+01
 -1.172286515836E+01 -1.158426407124E+01 -1.144720900621E+01 -1.131170207233E+01
 -1.117774179833E+01 -1.104532359830E+01 -1.091444024575E+01 -1.078508232724E+01
 -1.065723865622E+01 -1.053089663670E+01 -1.040604257368E+01 -1.028266193223E+01
 -1.016073955080E+01 -1.004025981578E+01 -9.921206804345E+00 -9.803564401958E+00
 -9.687316399502E+00 -9.572446573344E+00 -9.458938750498E+00 -9.346776860024E+00
 -9.235944971332E+00 -9.126427319963E+00 -9.018208321613E+00 -8.911272576212E+00
 -8.805604866327E+00 -8.701190154837E+00 -8.598013582997E+00 -8.496060468305E+00
 -8.395316302413E+00 -8.295766749055E+00 -8.197397642006E+00 -8.100194983061E+00
 -8.004144940041E+00 -7.909233844823E+00 -7.815448191391E+00 -7.722774633913E+00
 -7.631199984840E+00 -7.540711213026E+00 -7.451295441873E+00 -7.362939947500E+00
 -7.275632156923E+00 -7.189359646271E+00 -7.104110139018E+00 -7.019871504231E+00
 -6.936631754840E+00 -6.854379045939E+00 -6.773101673092E+00 -6.692788070671E+00
 -6.613426810207E+00 -6.535006598764E+00 -6.457516277332E+00 -6.380944819233E+00
 -6.305281328561E+00 -6.230515038619E+00 -6.156635310398E+00 -6.083631631051E+00
 -6.011493612407E+00 -5.940210989483E+00 -5.869773619029E+00 -5.800171478081E+00
 -5.731394662537E+00 -5.663433385743E+00 -5.596277977102E+00 -5.529918880700E+00
 -5.464346653940E+00 -5.399551966203E+00 -5.335525597518E+00 -5.272258437249E+00
 -5.209741482798E+00 -5.147965838325E+00 -5.086922713483E+00 -5.026603422160E+00
 -4.966999381252E+00 -4.908102109435E+00 -4.849903225959E+00 -4.792394449456E+00
 -4.735567596762E+00 -4.679414581750E+00 -4.623927414180E+00
</data>
</radfunc>
</slps>
<slps n="5" l="p" rc="2.22322850010" eref="-1.59428015263">
<radfunc>
<data npts="291">
 -2.735400777788E+01 -2.735392248644E+01 -2.735365930477E+01 -2.735322373117E+01
 -2.735261828120E+01 -2.735182243642E+01 -2.735080856123E+01 -2.734964815351E+01
 -2.734834410885E+01 -2.734682431495E+01 -2.734511241605E+01 -2.734325306560E+01
 -2.734100777253E+01 -2.733866486536E+01 -2.733632638813E+01 -2.733363519189E+01
 -2.733053917935E+01 -2.732760726251E+01 -2.732431424810E+01 -2.732061685856E+01
 -2.731646687449E+01 -2.731278513902E+01 -2.730874925047E+01 -2.730432627299E+01
 -2.729948035289E+01 -2.729417246540E+01 -2.728836013390E+01 -2.728364217780E+01
 -2.727859353466E+01 -2.727319179865E+01 -2.726741306549E+01 -2.726123181773E+01
 -2.725462079677E+01 -2.724755085921E+01 -2.723999081518E+01 -2.723190724553E+01
 -2.722326429457E+01 -2.721402343450E+01 -2.720751034120E+01 -2.720070007217E+01
 -2.719357886730E+01 -2.718613223195E+01 -2.717834488334E+01 -2.717020069198E+01
 -2.716168261763E+01 -2.715277263949E+01 -2.714345167991E+01 -2.713369952123E+01
 -2.712349471518E+01 -2.711281448417E+01 -2.710163461394E+01 -2.708992933687E+01
 -2.707767120531E+01 -2.706483095421E+01 -2.705137735240E+01 -2.703727704170E+01
 -2.702249436322E+01 -2.700699116998E+01 -2.699072662530E+01 -2.697365698593E+01
 -2.695573536953E+01 -2.693691150542E+01 -2.691713146829E+01 -2.689633739384E+01
 -2.687446717611E+01 -2.685145414561E+01 -2.682722672796E+01 -2.681463382727E+01
 -2.680170808252E+01 -2.678843900315E+01 -2.677481572057E+01 -2.676082697517E+01
 -2.674646110285E+01 -2.673170602131E+01 -2.671654921603E+01 -2.670097772581E+01
 -2.668497812810E+01 -2.666853652391E+01 -2.665163852239E+01 -2.663426922516E+01
 -2.661641321018E+01 -2.659805451538E+01 -2.657917662193E+01 -2.655976243716E+01
 -2.653979427715E+01 -2.651925384904E+01 -2.649812223294E+01 -2.647637986359E+01
 -2.645400651165E+01 -2.643098126468E+01 -2.640728250789E+01 -2.638288790448E+01
 -2.635777437582E+01 -2.633191808126E+01 -2.630529439777E+01 -2.627787789934E+01
 -2.624964233612E+01 -2.622056061353E+01 -2.619060477113E+01 -2.615974596146E+01
 -2.612795442893E+01 -2.609519948866E+01 -2.606144950556E+01 -2.602667187355E+01
 -2.599083299523E+01 -2.595389826192E+01 -2.591583203438E+01 -2.587659762427E+01
 -2.583615727660E+01 -2.579447215339E+01 -2.575150231866E+01 -2.570720672520E+01